n -t * -s 0  -x 0 -y 0 -Z 0 -z 20  -v circle -c black
n -t * -s 1  -x 0 -y 0 -Z 0 -z 20  -v circle -c black
n -t * -s 2  -x 0 -y 0 -Z 0 -z 20  -v circle -c black
n -t * -s 3  -x 0 -y 0 -Z 0 -z 20  -v circle -c black
n -t * -s 4  -x 0 -y 0 -Z 0 -z 20  -v circle -c black
n -t * -s 5  -x 0 -y 0 -Z 0 -z 20  -v circle -c black
n -t * -s 6  -x 0 -y 0 -Z 0 -z 20  -v circle -c black
n -t * -s 7  -x 0 -y 0 -Z 0 -z 20  -v circle -c black
n -t * -s 8  -x 0 -y 0 -Z 0 -z 20  -v circle -c black
n -t * -s 9  -x 0 -y 0 -Z 0 -z 20  -v circle -c black
n -t * -s 10  -x 0 -y 0 -Z 0 -z 20  -v circle -c black
n -t * -s 11  -x 0 -y 0 -Z 0 -z 20  -v circle -c black
n -t * -s 12  -x 0 -y 0 -Z 0 -z 20  -v circle -c black
n -t * -s 13  -x 0 -y 0 -Z 0 -z 20  -v circle -c black
n -t * -s 14  -x 0 -y 0 -Z 0 -z 20  -v circle -c black
n -t * -s 15  -x 0 -y 0 -Z 0 -z 20  -v circle -c black
n -t * -s 16  -x 0 -y 0 -Z 0 -z 20  -v circle -c black
n -t * -s 17  -x 0 -y 0 -Z 0 -z 20  -v circle -c black
n -t * -s 18  -x 0 -y 0 -Z 0 -z 20  -v circle -c black
n -t * -s 19  -x 0 -y 0 -Z 0 -z 20  -v circle -c black
V -t * -v 1.0a5 -a 0
W -t * -x 1100 -y 800
A -t * -n 1 -p 0 -o 0x7fffffff -c 30 -a 1
A -t * -h 1 -m 1073741823 -s 0
n -t 0 -s 3 -S COLOR -c red -o red -i red -I red
n -t 0.000000 -s 0 -x 926.370000 -y 263.330000 -U 0.000000 -V 0.000000 -T 0.000000
n -t 1.000000 -s 0 -x 926.370000 -y 263.330000 -U 0.870161 -V -7.771436 -T 0.999815
n -t 1.000000 -s 1 -x 585.570000 -y 668.860000 -U 0.000000 -V 0.000000 -T 0.000000
n -t 2.000000 -s 0 -x 927.240000 -y 255.560000 -U 1.217556 -V -3.673480 -T 0.960942
n -t 2.000000 -s 1 -x 585.570000 -y 668.860000 -U 12.156444 -V -3.606006 -T 0.904047
n -t 2.000000 -s 2 -x 899.110000 -y 628.050000 -U 0.000000 -V 0.000000 -T 0.000000
n -t 3.000000 -s 0 -x 928.410000 -y 252.030000 -U 2.782516 -V 1.679316 -T 0.815808
n -t 3.000000 -s 1 -x 596.560000 -y 665.600000 -U 10.424452 -V -0.340145 -T 0.999573
n -t 3.000000 -s 2 -x 899.110000 -y 628.050000 -U -12.205726 -V 5.308141 -T 1.000350
n -t 3.000000 -s 3 -x 548.810000 -y 333.330000 -U 0.000000 -V 0.000000 -T 0.000000
n -t 4.000000 -s 0 -x 930.680000 -y 253.400000 -U -0.271653 -V 2.636040 -T 0.993915
n -t 4.000000 -s 1 -x 606.980000 -y 665.260000 -U 6.376547 -V -0.209886 -T 1.000542
n -t 4.000000 -s 2 -x 886.904274 -y 633.358141 -U -12.272145 -V 5.330934 -T 1.000174
n -t 4.000000 -s 3 -x 548.810000 -y 333.330000 -U 10.964388 -V 9.503804 -T 0.999600
n -t 4.000000 -s 4 -x 635.850000 -y 592.510000 -U 0.000000 -V 0.000000 -T 0.000000
n -t 5.000000 -s 0 -x 930.410000 -y 256.020000 -U -0.559845 -V 4.978622 -T 1.000277
n -t 5.000000 -s 1 -x 613.356547 -y 665.050114 -U 5.271603 -V -0.440795 -T 0.998454
n -t 5.000000 -s 2 -x 874.632129 -y 638.689075 -U -12.718049 -V 5.509158 -T 1.000321
n -t 5.000000 -s 3 -x 559.770000 -y 342.830000 -U 7.206890 -V 6.947002 -T 1.000432
n -t 5.000000 -s 4 -x 635.850000 -y 592.510000 -U 1.580630 -V 13.135239 -T 0.999601
n -t 5.000000 -s 5 -x 631.540000 -y 643.610000 -U 0.000000 -V 0.000000 -T 0.000000
n -t 6.000000 -s 0 -x 929.850155 -y 260.998622 -U -0.710035 -V 6.330304 -T 1.000170
n -t 6.000000 -s 1 -x 618.620000 -y 664.610000 -U 2.659360 -V -3.404439 -T 0.872390
n -t 6.000000 -s 2 -x 861.914080 -y 644.198233 -U -8.934804 -V 3.877741 -T 1.001038
n -t 6.000000 -s 3 -x 566.976890 -y 349.777002 -U 3.830714 -V 3.960521 -T 1.000625
n -t 6.000000 -s 4 -x 637.430000 -y 605.640000 -U 1.629073 -V 13.532296 -T 1.000569
n -t 6.000000 -s 5 -x 631.540000 -y 643.610000 -U -9.718812 -V 4.026797 -T 0.990862
n -t 6.000000 -s 6 -x 869.210000 -y 512.890000 -U 0.000000 -V 0.000000 -T 0.000000
n -t 7.000000 -s 0 -x 929.140120 -y 267.328926 -U -0.909856 -V 8.048737 -T 1.000290
n -t 7.000000 -s 1 -x 620.940000 -y 661.640000 -U -2.033809 -V -3.946799 -T 0.993210
n -t 7.000000 -s 2 -x 852.979276 -y 648.075974 -U -5.520764 -V 2.400325 -T 1.001542
n -t 7.000000 -s 3 -x 570.807604 -y 353.737523 -U 1.872289 -V 5.065030 -T 0.914600
n -t 7.000000 -s 4 -x 639.059073 -y 619.172296 -U 1.139083 -V 9.542253 -T 1.001619
n -t 7.000000 -s 5 -x 621.910000 -y 647.600000 -U -1.597568 -V 7.440422 -T 0.895111
n -t 7.000000 -s 6 -x 869.210000 -y 512.890000 -U 0.290142 -V 14.477093 -T 0.999510
n -t 7.000000 -s 7 -x 623.750000 -y 491.310000 -U 0.000000 -V 0.000000 -T 0.000000
n -t 8.000000 -s 0 -x 928.230264 -y 275.377662 -U -1.160548 -V 10.304855 -T 0.999756
n -t 8.000000 -s 1 -x 618.920000 -y 657.720000 -U -2.139437 -V -5.808520 -T 0.967544
n -t 8.000000 -s 2 -x 847.458512 -y 650.476299 -U -3.223808 -V -0.656630 -T 0.892892
n -t 8.000000 -s 3 -x 572.520000 -y 358.370000 -U -4.272853 -V 4.353473 -T 0.992311
n -t 8.000000 -s 4 -x 640.198156 -y 628.714548 -U 0.610396 -V 5.073413 -T 1.002373
n -t 8.000000 -s 5 -x 620.480000 -y 654.260000 -U 1.697370 -V 2.605962 -T 1.001550
n -t 8.000000 -s 6 -x 869.500000 -y 527.360000 -U 0.259951 -V 13.417482 -T 1.000188
n -t 8.000000 -s 7 -x 623.750000 -y 491.310000 -U 1.390984 -V 11.808356 -T 0.999292
n -t 8.000000 -s 8 -x 401.840000 -y 325.000000 -U 0.000000 -V 0.000000 -T 0.000000
n -t 9.000000 -s 0 -x 927.070000 -y 285.680000 -U -1.390219 -V 12.341948 -T 0.999842
n -t 9.000000 -s 1 -x 616.850000 -y 652.100000 -U 3.066539 -V -7.486283 -T 0.916343
n -t 9.000000 -s 2 -x 844.580000 -y 649.890000 -U 1.061670 -V -2.196920 -T 0.951332
n -t 9.000000 -s 3 -x 568.280000 -y 362.690000 -U -5.169928 -V 5.350275 -T 0.998080
n -t 9.000000 -s 4 -x 640.808552 -y 633.787961 -U -0.327262 -V 1.039711 -T 0.973384
n -t 9.000000 -s 5 -x 622.177370 -y 656.865962 -U -0.190115 -V 2.673248 -T 0.932962
n -t 9.000000 -s 6 -x 869.759951 -y 540.777482 -U 0.180160 -V 9.258247 -T 0.999381
n -t 9.000000 -s 7 -x 625.140000 -y 503.110000 -U 1.430649 -V 12.065477 -T 0.999546
n -t 9.000000 -s 8 -x 401.840000 -y 325.000000 -U -4.676639 -V 0.559598 -T 1.000719
n -t 9.000000 -s 9 -x 774.810000 -y 340.010000 -U 0.000000 -V 0.000000 -T 0.000000
n -t 10.000000 -s 0 -x 925.680000 -y 298.020000 -U -1.639832 -V 14.648500 -T 1.000102
n -t 10.000000 -s 1 -x 619.660000 -y 645.240000 -U 7.673466 -V -3.927127 -T 0.995639
n -t 10.000000 -s 10 -x 269.910000 -y 90.850000 -U 0.000000 -V 0.000000 -T 0.000000
n -t 10.000000 -s 2 -x 845.590000 -y 647.800000 -U 4.100257 -V -1.780111 -T 0.999937
n -t 10.000000 -s 3 -x 563.120000 -y 368.030000 -U -5.967568 -V 7.391761 -T 0.997056
n -t 10.000000 -s 4 -x 640.490000 -y 634.800000 -U -0.241032 -V 0.472021 -T 0.995719
n -t 10.000000 -s 5 -x 622.000000 -y 659.360000 -U -2.523045 -V -0.539112 -T 0.927451
n -t 10.000000 -s 6 -x 869.940000 -y 550.030000 -U 0.089984 -V 4.759149 -T 1.000179
n -t 10.000000 -s 7 -x 626.570000 -y 515.170000 -U 1.379771 -V 11.578076 -T 1.000166
n -t 10.000000 -s 8 -x 397.163361 -y 325.559598 -U -4.199156 -V 0.509892 -T 1.001001
n -t 10.000000 -s 9 -x 774.810000 -y 340.010000 -U -0.400109 -V 11.803220 -T 0.999727
+ -t 10.000000000 -s 1 -d -1 -p cbr -e 512 -c 2 -a 0 -i 0 -k AGT 
- -t 10.000000000 -s 1 -d -1 -p cbr -e 512 -c 2 -a 0 -i 0 -k AGT
h -t 10.000000000 -s 1 -d -1 -p cbr -e 512 -c 2 -a 0 -i 0 -k AGT
+ -t 10.000000000 -s 1 -d -1 -p AODV -e 48 -c 2 -a 0 -i 0 -k RTR 
- -t 10.000000000 -s 1 -d -1 -p AODV -e 48 -c 2 -a 0 -i 0 -k RTR
h -t 10.000000000 -s 1 -d -1 -p AODV -e 48 -c 2 -a 0 -i 0 -k RTR
r -t 10.000306048 -s 5 -d -1 -p AODV -e 48 -c 2 -a 0 -i 0 -k RTR
+ -t 10.000306048 -s 5 -d 1 -p AODV -e 44 -c 2 -a 0 -i 0 -k RTR 
- -t 10.000306048 -s 5 -d 1 -p AODV -e 44 -c 2 -a 0 -i 0 -k RTR
h -t 10.000306048 -s 5 -d 1 -p AODV -e 44 -c 2 -a 0 -i 0 -k RTR
r -t 10.000306078 -s 4 -d -1 -p AODV -e 48 -c 2 -a 0 -i 0 -k RTR
r -t 10.000306434 -s 7 -d -1 -p AODV -e 48 -c 2 -a 0 -i 0 -k RTR
r -t 10.000306626 -s 14 -d -1 -p AODV -e 48 -c 2 -a 0 -i 0 -k RTR
r -t 10.000306753 -s 2 -d -1 -p AODV -e 48 -c 2 -a 0 -i 0 -k RTR
r -t 10.000306858 -s 18 -d -1 -p AODV -e 48 -c 2 -a 0 -i 0 -k RTR
r -t 10.000306893 -s 6 -d -1 -p AODV -e 48 -c 2 -a 0 -i 0 -k RTR
r -t 10.000306911 -s 17 -d -1 -p AODV -e 48 -c 2 -a 0 -i 0 -k RTR
r -t 10.000306943 -s 3 -d -1 -p AODV -e 48 -c 2 -a 0 -i 0 -k RTR
+ -t 10.000306943 -s 3 -d 1 -p AODV -e 44 -c 2 -a 0 -i 0 -k RTR 
- -t 10.000306943 -s 3 -d 1 -p AODV -e 44 -c 2 -a 0 -i 0 -k RTR
h -t 10.000306943 -s 3 -d 1 -p AODV -e 44 -c 2 -a 0 -i 0 -k RTR
+ -t 10.000448124 -s 4 -d -1 -p AODV -e 48 -c 2 -a 0 -i 0 -k RTR 
- -t 10.000448124 -s 4 -d -1 -p AODV -e 48 -c 2 -a 0 -i 0 -k RTR
h -t 10.000448124 -s 4 -d -1 -p AODV -e 48 -c 2 -a 0 -i 0 -k RTR
+ -t 10.001187661 -s 7 -d -1 -p AODV -e 48 -c 2 -a 0 -i 0 -k RTR 
- -t 10.001187661 -s 7 -d -1 -p AODV -e 48 -c 2 -a 0 -i 0 -k RTR
h -t 10.001187661 -s 7 -d -1 -p AODV -e 48 -c 2 -a 0 -i 0 -k RTR
r -t 10.001367323 -s 1 -d -1 -p AODV -e 48 -c 2 -a 0 -i 0 -k RTR
r -t 10.001367348 -s 5 -d -1 -p AODV -e 48 -c 2 -a 0 -i 0 -k RTR
r -t 10.001367647 -s 7 -d -1 -p AODV -e 48 -c 2 -a 0 -i 0 -k RTR
r -t 10.001367808 -s 14 -d -1 -p AODV -e 48 -c 2 -a 0 -i 0 -k RTR
r -t 10.001367931 -s 2 -d -1 -p AODV -e 48 -c 2 -a 0 -i 0 -k RTR
r -t 10.001368061 -s 6 -d -1 -p AODV -e 48 -c 2 -a 0 -i 0 -k RTR
r -t 10.001368079 -s 17 -d -1 -p AODV -e 48 -c 2 -a 0 -i 0 -k RTR
r -t 10.001368125 -s 19 -d -1 -p AODV -e 48 -c 2 -a 0 -i 0 -k RTR
r -t 10.001368159 -s 18 -d -1 -p AODV -e 48 -c 2 -a 0 -i 0 -k RTR
r -t 10.001368171 -s 3 -d -1 -p AODV -e 48 -c 2 -a 0 -i 0 -k RTR
r -t 10.001701048 -s 4 -d -1 -p AODV -e 48 -c 2 -a 0 -i 0 -k RTR
r -t 10.001701081 -s 1 -d -1 -p AODV -e 48 -c 2 -a 0 -i 0 -k RTR
r -t 10.001701128 -s 5 -d -1 -p AODV -e 48 -c 2 -a 0 -i 0 -k RTR
r -t 10.001701181 -s 3 -d -1 -p AODV -e 48 -c 2 -a 0 -i 0 -k RTR
r -t 10.001701412 -s 9 -d -1 -p AODV -e 48 -c 2 -a 0 -i 0 -k RTR
r -t 10.001701430 -s 14 -d -1 -p AODV -e 48 -c 2 -a 0 -i 0 -k RTR
r -t 10.001701456 -s 19 -d -1 -p AODV -e 48 -c 2 -a 0 -i 0 -k RTR
r -t 10.001701460 -s 17 -d -1 -p AODV -e 48 -c 2 -a 0 -i 0 -k RTR
r -t 10.001701467 -s 6 -d -1 -p AODV -e 48 -c 2 -a 0 -i 0 -k RTR
r -t 10.001701491 -s 18 -d -1 -p AODV -e 48 -c 2 -a 0 -i 0 -k RTR
r -t 10.001701500 -s 2 -d -1 -p AODV -e 48 -c 2 -a 0 -i 0 -k RTR
r -t 10.001701595 -s 16 -d -1 -p AODV -e 48 -c 2 -a 0 -i 0 -k RTR
r -t 10.001701598 -s 12 -d -1 -p AODV -e 48 -c 2 -a 0 -i 0 -k RTR
+ -t 10.002063176 -s 1 -d 5 -p cbr -e 532 -c 2 -a 0 -i 0 -k RTR 
- -t 10.002063176 -s 1 -d 5 -p cbr -e 532 -c 2 -a 0 -i 0 -k RTR
h -t 10.002063176 -s 1 -d 5 -p cbr -e 532 -c 2 -a 0 -i 0 -k RTR
+ -t 10.002652928 -s 17 -d -1 -p AODV -e 48 -c 2 -a 0 -i 0 -k RTR 
- -t 10.002652928 -s 17 -d -1 -p AODV -e 48 -c 2 -a 0 -i 0 -k RTR
h -t 10.002652928 -s 17 -d -1 -p AODV -e 48 -c 2 -a 0 -i 0 -k RTR
+ -t 10.003116178 -s 19 -d -1 -p AODV -e 48 -c 2 -a 0 -i 0 -k RTR 
- -t 10.003116178 -s 19 -d -1 -p AODV -e 48 -c 2 -a 0 -i 0 -k RTR
h -t 10.003116178 -s 19 -d -1 -p AODV -e 48 -c 2 -a 0 -i 0 -k RTR
r -t 10.003422284 -s 17 -d -1 -p AODV -e 48 -c 2 -a 0 -i 0 -k RTR
r -t 10.003422335 -s 6 -d -1 -p AODV -e 48 -c 2 -a 0 -i 0 -k RTR
r -t 10.003422482 -s 15 -d -1 -p AODV -e 48 -c 2 -a 0 -i 0 -k RTR
+ -t 10.003436476 -s 18 -d -1 -p AODV -e 48 -c 2 -a 0 -i 0 -k RTR 
- -t 10.003436476 -s 18 -d -1 -p AODV -e 48 -c 2 -a 0 -i 0 -k RTR
h -t 10.003436476 -s 18 -d -1 -p AODV -e 48 -c 2 -a 0 -i 0 -k RTR
r -t 10.003863335 -s 6 -d -1 -p AODV -e 48 -c 2 -a 0 -i 0 -k RTR
r -t 10.003863391 -s 19 -d -1 -p AODV -e 48 -c 2 -a 0 -i 0 -k RTR
r -t 10.003863684 -s 15 -d -1 -p AODV -e 48 -c 2 -a 0 -i 0 -k RTR
r -t 10.003903223 -s 5 -d 5 -p cbr -e 532 -c 2 -a 0 -i 0 -k AGT
+ -t 10.004282478 -s 12 -d -1 -p AODV -e 48 -c 2 -a 0 -i 0 -k RTR 
- -t 10.004282478 -s 12 -d -1 -p AODV -e 48 -c 2 -a 0 -i 0 -k RTR
h -t 10.004282478 -s 12 -d -1 -p AODV -e 48 -c 2 -a 0 -i 0 -k RTR
+ -t 10.004718360 -s 14 -d -1 -p AODV -e 48 -c 2 -a 0 -i 0 -k RTR 
- -t 10.004718360 -s 14 -d -1 -p AODV -e 48 -c 2 -a 0 -i 0 -k RTR
h -t 10.004718360 -s 14 -d -1 -p AODV -e 48 -c 2 -a 0 -i 0 -k RTR
r -t 10.005024505 -s 2 -d -1 -p AODV -e 48 -c 2 -a 0 -i 0 -k RTR
r -t 10.005024801 -s 6 -d -1 -p AODV -e 48 -c 2 -a 0 -i 0 -k RTR
r -t 10.005024846 -s 17 -d -1 -p AODV -e 48 -c 2 -a 0 -i 0 -k RTR
r -t 10.005024922 -s 4 -d -1 -p AODV -e 48 -c 2 -a 0 -i 0 -k RTR
r -t 10.005024943 -s 19 -d -1 -p AODV -e 48 -c 2 -a 0 -i 0 -k RTR
r -t 10.005024974 -s 5 -d -1 -p AODV -e 48 -c 2 -a 0 -i 0 -k RTR
r -t 10.005024986 -s 1 -d -1 -p AODV -e 48 -c 2 -a 0 -i 0 -k RTR
r -t 10.005025142 -s 7 -d -1 -p AODV -e 48 -c 2 -a 0 -i 0 -k RTR
r -t 10.005025245 -s 15 -d -1 -p AODV -e 48 -c 2 -a 0 -i 0 -k RTR
+ -t 10.005189005 -s 16 -d -1 -p AODV -e 48 -c 2 -a 0 -i 0 -k RTR 
- -t 10.005189005 -s 16 -d -1 -p AODV -e 48 -c 2 -a 0 -i 0 -k RTR
h -t 10.005189005 -s 16 -d -1 -p AODV -e 48 -c 2 -a 0 -i 0 -k RTR
r -t 10.005495224 -s 13 -d -1 -p AODV -e 48 -c 2 -a 0 -i 0 -k RTR
r -t 10.005495453 -s 9 -d -1 -p AODV -e 48 -c 2 -a 0 -i 0 -k RTR
r -t 10.005495608 -s 3 -d -1 -p AODV -e 48 -c 2 -a 0 -i 0 -k RTR
r -t 10.005495697 -s 12 -d -1 -p AODV -e 48 -c 2 -a 0 -i 0 -k RTR
r -t 10.005495822 -s 0 -d -1 -p AODV -e 48 -c 2 -a 0 -i 0 -k RTR
r -t 10.005495954 -s 7 -d -1 -p AODV -e 48 -c 2 -a 0 -i 0 -k RTR
+ -t 10.006587807 -s 0 -d -1 -p AODV -e 48 -c 2 -a 0 -i 0 -k RTR 
- -t 10.006587807 -s 0 -d -1 -p AODV -e 48 -c 2 -a 0 -i 0 -k RTR
h -t 10.006587807 -s 0 -d -1 -p AODV -e 48 -c 2 -a 0 -i 0 -k RTR
r -t 10.006894228 -s 15 -d -1 -p AODV -e 48 -c 2 -a 0 -i 0 -k RTR
r -t 10.006894329 -s 9 -d -1 -p AODV -e 48 -c 2 -a 0 -i 0 -k RTR
r -t 10.006894515 -s 19 -d -1 -p AODV -e 48 -c 2 -a 0 -i 0 -k RTR
r -t 10.006894618 -s 17 -d -1 -p AODV -e 48 -c 2 -a 0 -i 0 -k RTR
r -t 10.006894624 -s 16 -d -1 -p AODV -e 48 -c 2 -a 0 -i 0 -k RTR
r -t 10.006894667 -s 6 -d -1 -p AODV -e 48 -c 2 -a 0 -i 0 -k RTR
r -t 10.006894697 -s 13 -d -1 -p AODV -e 48 -c 2 -a 0 -i 0 -k RTR
+ -t 10.008298308 -s 2 -d -1 -p AODV -e 48 -c 2 -a 0 -i 0 -k RTR 
- -t 10.008298308 -s 2 -d -1 -p AODV -e 48 -c 2 -a 0 -i 0 -k RTR
h -t 10.008298308 -s 2 -d -1 -p AODV -e 48 -c 2 -a 0 -i 0 -k RTR
+ -t 10.008471653 -s 6 -d -1 -p AODV -e 48 -c 2 -a 0 -i 0 -k RTR 
- -t 10.008471653 -s 6 -d -1 -p AODV -e 48 -c 2 -a 0 -i 0 -k RTR
h -t 10.008471653 -s 6 -d -1 -p AODV -e 48 -c 2 -a 0 -i 0 -k RTR
r -t 10.008604453 -s 14 -d -1 -p AODV -e 48 -c 2 -a 0 -i 0 -k RTR
r -t 10.008604643 -s 6 -d -1 -p AODV -e 48 -c 2 -a 0 -i 0 -k RTR
r -t 10.008604692 -s 17 -d -1 -p AODV -e 48 -c 2 -a 0 -i 0 -k RTR
r -t 10.008604797 -s 19 -d -1 -p AODV -e 48 -c 2 -a 0 -i 0 -k RTR
r -t 10.008604993 -s 4 -d -1 -p AODV -e 48 -c 2 -a 0 -i 0 -k RTR
r -t 10.008605054 -s 5 -d -1 -p AODV -e 48 -c 2 -a 0 -i 0 -k RTR
r -t 10.008605061 -s 1 -d -1 -p AODV -e 48 -c 2 -a 0 -i 0 -k RTR
r -t 10.008605089 -s 15 -d -1 -p AODV -e 48 -c 2 -a 0 -i 0 -k RTR
r -t 10.008605161 -s 7 -d -1 -p AODV -e 48 -c 2 -a 0 -i 0 -k RTR
r -t 10.008910694 -s 17 -d -1 -p AODV -e 48 -c 2 -a 0 -i 0 -k RTR
r -t 10.008910800 -s 19 -d -1 -p AODV -e 48 -c 2 -a 0 -i 0 -k RTR
r -t 10.008910979 -s 2 -d -1 -p AODV -e 48 -c 2 -a 0 -i 0 -k RTR
r -t 10.008911085 -s 14 -d -1 -p AODV -e 48 -c 2 -a 0 -i 0 -k RTR
r -t 10.008911090 -s 15 -d -1 -p AODV -e 48 -c 2 -a 0 -i 0 -k RTR
r -t 10.008911412 -s 9 -d -1 -p AODV -e 48 -c 2 -a 0 -i 0 -k RTR
r -t 10.008911459 -s 4 -d -1 -p AODV -e 48 -c 2 -a 0 -i 0 -k RTR
r -t 10.008911463 -s 7 -d -1 -p AODV -e 48 -c 2 -a 0 -i 0 -k RTR
r -t 10.008911503 -s 0 -d -1 -p AODV -e 48 -c 2 -a 0 -i 0 -k RTR
r -t 10.008911536 -s 1 -d -1 -p AODV -e 48 -c 2 -a 0 -i 0 -k RTR
r -t 10.008911547 -s 5 -d -1 -p AODV -e 48 -c 2 -a 0 -i 0 -k RTR
+ -t 10.009550415 -s 13 -d -1 -p AODV -e 48 -c 2 -a 0 -i 0 -k RTR 
- -t 10.009550415 -s 13 -d -1 -p AODV -e 48 -c 2 -a 0 -i 0 -k RTR
h -t 10.009550415 -s 13 -d -1 -p AODV -e 48 -c 2 -a 0 -i 0 -k RTR
+ -t 10.009771697 -s 9 -d -1 -p AODV -e 48 -c 2 -a 0 -i 0 -k RTR 
- -t 10.009771697 -s 9 -d -1 -p AODV -e 48 -c 2 -a 0 -i 0 -k RTR
h -t 10.009771697 -s 9 -d -1 -p AODV -e 48 -c 2 -a 0 -i 0 -k RTR
r -t 10.009856633 -s 16 -d -1 -p AODV -e 48 -c 2 -a 0 -i 0 -k RTR
r -t 10.009857042 -s 9 -d -1 -p AODV -e 48 -c 2 -a 0 -i 0 -k RTR
r -t 10.009857176 -s 12 -d -1 -p AODV -e 48 -c 2 -a 0 -i 0 -k RTR
r -t 10.009857194 -s 3 -d -1 -p AODV -e 48 -c 2 -a 0 -i 0 -k RTR
r -t 10.009857305 -s 0 -d -1 -p AODV -e 48 -c 2 -a 0 -i 0 -k RTR
r -t 10.010226490 -s 16 -d -1 -p AODV -e 48 -c 2 -a 0 -i 0 -k RTR
r -t 10.010226564 -s 0 -d -1 -p AODV -e 48 -c 2 -a 0 -i 0 -k RTR
r -t 10.010226585 -s 15 -d -1 -p AODV -e 48 -c 2 -a 0 -i 0 -k RTR
r -t 10.010226669 -s 19 -d -1 -p AODV -e 48 -c 2 -a 0 -i 0 -k RTR
r -t 10.010226670 -s 13 -d -1 -p AODV -e 48 -c 2 -a 0 -i 0 -k RTR
r -t 10.010226754 -s 3 -d -1 -p AODV -e 48 -c 2 -a 0 -i 0 -k RTR
r -t 10.010226765 -s 17 -d -1 -p AODV -e 48 -c 2 -a 0 -i 0 -k RTR
r -t 10.010226807 -s 7 -d -1 -p AODV -e 48 -c 2 -a 0 -i 0 -k RTR
r -t 10.010226811 -s 6 -d -1 -p AODV -e 48 -c 2 -a 0 -i 0 -k RTR
+ -t 10.012043155 -s 15 -d -1 -p AODV -e 48 -c 2 -a 0 -i 0 -k RTR 
- -t 10.012043155 -s 15 -d -1 -p AODV -e 48 -c 2 -a 0 -i 0 -k RTR
h -t 10.012043155 -s 15 -d -1 -p AODV -e 48 -c 2 -a 0 -i 0 -k RTR
r -t 10.012349459 -s 19 -d -1 -p AODV -e 48 -c 2 -a 0 -i 0 -k RTR
r -t 10.012349554 -s 17 -d -1 -p AODV -e 48 -c 2 -a 0 -i 0 -k RTR
r -t 10.012349575 -s 0 -d -1 -p AODV -e 48 -c 2 -a 0 -i 0 -k RTR
r -t 10.012349601 -s 6 -d -1 -p AODV -e 48 -c 2 -a 0 -i 0 -k RTR
r -t 10.012349697 -s 9 -d -1 -p AODV -e 48 -c 2 -a 0 -i 0 -k RTR
r -t 10.012349936 -s 2 -d -1 -p AODV -e 48 -c 2 -a 0 -i 0 -k RTR
r -t 10.012350040 -s 14 -d -1 -p AODV -e 48 -c 2 -a 0 -i 0 -k RTR
+ -t 10.125084894 -s 1 -d -1 -p cbr -e 512 -c 2 -a 0 -i 1 -k AGT 
- -t 10.125084894 -s 1 -d -1 -p cbr -e 512 -c 2 -a 0 -i 1 -k AGT
h -t 10.125084894 -s 1 -d -1 -p cbr -e 512 -c 2 -a 0 -i 1 -k AGT
+ -t 10.125084894 -s 1 -d 5 -p cbr -e 532 -c 2 -a 0 -i 1 -k RTR 
- -t 10.125084894 -s 1 -d 5 -p cbr -e 532 -c 2 -a 0 -i 1 -k RTR
h -t 10.125084894 -s 1 -d 5 -p cbr -e 532 -c 2 -a 0 -i 1 -k RTR
r -t 10.126678943 -s 5 -d 5 -p cbr -e 532 -c 2 -a 0 -i 1 -k AGT
+ -t 10.398841741 -s 1 -d -1 -p cbr -e 512 -c 2 -a 0 -i 2 -k AGT 
- -t 10.398841741 -s 1 -d -1 -p cbr -e 512 -c 2 -a 0 -i 2 -k AGT
h -t 10.398841741 -s 1 -d -1 -p cbr -e 512 -c 2 -a 0 -i 2 -k AGT
+ -t 10.398841741 -s 1 -d 5 -p cbr -e 532 -c 2 -a 0 -i 2 -k RTR 
- -t 10.398841741 -s 1 -d 5 -p cbr -e 532 -c 2 -a 0 -i 2 -k RTR
h -t 10.398841741 -s 1 -d 5 -p cbr -e 532 -c 2 -a 0 -i 2 -k RTR
r -t 10.400435793 -s 5 -d 5 -p cbr -e 532 -c 2 -a 0 -i 2 -k AGT
+ -t 10.554617615 -s 1 -d -1 -p cbr -e 512 -c 2 -a 0 -i 3 -k AGT 
- -t 10.554617615 -s 1 -d -1 -p cbr -e 512 -c 2 -a 0 -i 3 -k AGT
h -t 10.554617615 -s 1 -d -1 -p cbr -e 512 -c 2 -a 0 -i 3 -k AGT
+ -t 10.554617615 -s 1 -d 5 -p cbr -e 532 -c 2 -a 0 -i 3 -k RTR 
- -t 10.554617615 -s 1 -d 5 -p cbr -e 532 -c 2 -a 0 -i 3 -k RTR
h -t 10.554617615 -s 1 -d 5 -p cbr -e 532 -c 2 -a 0 -i 3 -k RTR
r -t 10.556211670 -s 5 -d 5 -p cbr -e 532 -c 2 -a 0 -i 3 -k AGT
+ -t 10.743866050 -s 1 -d -1 -p cbr -e 512 -c 2 -a 0 -i 4 -k AGT 
- -t 10.743866050 -s 1 -d -1 -p cbr -e 512 -c 2 -a 0 -i 4 -k AGT
h -t 10.743866050 -s 1 -d -1 -p cbr -e 512 -c 2 -a 0 -i 4 -k AGT
+ -t 10.743866050 -s 1 -d 5 -p cbr -e 532 -c 2 -a 0 -i 4 -k RTR 
- -t 10.743866050 -s 1 -d 5 -p cbr -e 532 -c 2 -a 0 -i 4 -k RTR
h -t 10.743866050 -s 1 -d 5 -p cbr -e 532 -c 2 -a 0 -i 4 -k RTR
r -t 10.745460108 -s 5 -d 5 -p cbr -e 532 -c 2 -a 0 -i 4 -k AGT
n -t 11.000000 -s 0 -x 924.040168 -y 312.668500 -U -1.930145 -V 17.081295 -T 1.000012
n -t 11.000000 -s 1 -x 627.300000 -y 641.330000 -U 4.011264 -V -0.940296 -T 0.999685
n -t 11.000000 -s 10 -x 269.910000 -y 90.850000 -U 5.028671 -V 14.206244 -T 1.000264
n -t 11.000000 -s 11 -x 246.620000 -y 271.080000 -U 0.000000 -V 0.000000 -T 0.000000
n -t 11.000000 -s 2 -x 849.690000 -y 646.020000 -U 6.448591 -V -2.799388 -T 1.000219
n -t 11.000000 -s 3 -x 557.170000 -y 375.400000 -U -5.595462 -V 9.586491 -T 0.997237
n -t 11.000000 -s 4 -x 640.250000 -y 635.270000 -U -0.007071 -V 0.007071 -T 1.414214
n -t 11.000000 -s 5 -x 619.660000 -y 658.860000 -U -2.280682 -V -3.491044 -T 0.999701
n -t 11.000000 -s 6 -x 870.029984 -y 554.789149 -U -1.579706 -V 2.713693 -T 0.917882
n -t 11.000000 -s 7 -x 627.949771 -y 526.748076 -U 1.348828 -V 11.350135 -T 1.001039
n -t 11.000000 -s 8 -x 392.964205 -y 326.069489 -U -4.918565 -V 0.639777 -T 1.001147
n -t 11.000000 -s 9 -x 774.410000 -y 351.810000 -U -0.310161 -V 9.154747 -T 0.999481
+ -t 11.005071542 -s 1 -d -1 -p cbr -e 512 -c 2 -a 0 -i 5 -k AGT 
- -t 11.005071542 -s 1 -d -1 -p cbr -e 512 -c 2 -a 0 -i 5 -k AGT
h -t 11.005071542 -s 1 -d -1 -p cbr -e 512 -c 2 -a 0 -i 5 -k AGT
+ -t 11.005071542 -s 1 -d 5 -p cbr -e 532 -c 2 -a 0 -i 5 -k RTR 
- -t 11.005071542 -s 1 -d 5 -p cbr -e 532 -c 2 -a 0 -i 5 -k RTR
h -t 11.005071542 -s 1 -d 5 -p cbr -e 532 -c 2 -a 0 -i 5 -k RTR
r -t 11.006665606 -s 5 -d 5 -p cbr -e 532 -c 2 -a 0 -i 5 -k AGT
+ -t 11.195527579 -s 1 -d -1 -p cbr -e 512 -c 2 -a 0 -i 6 -k AGT 
- -t 11.195527579 -s 1 -d -1 -p cbr -e 512 -c 2 -a 0 -i 6 -k AGT
h -t 11.195527579 -s 1 -d -1 -p cbr -e 512 -c 2 -a 0 -i 6 -k AGT
+ -t 11.195527579 -s 1 -d 5 -p cbr -e 532 -c 2 -a 0 -i 6 -k RTR 
- -t 11.195527579 -s 1 -d 5 -p cbr -e 532 -c 2 -a 0 -i 6 -k RTR
h -t 11.195527579 -s 1 -d 5 -p cbr -e 532 -c 2 -a 0 -i 6 -k RTR
r -t 11.197121643 -s 5 -d 5 -p cbr -e 532 -c 2 -a 0 -i 6 -k AGT
+ -t 11.426949398 -s 1 -d -1 -p cbr -e 512 -c 2 -a 0 -i 7 -k AGT 
- -t 11.426949398 -s 1 -d -1 -p cbr -e 512 -c 2 -a 0 -i 7 -k AGT
h -t 11.426949398 -s 1 -d -1 -p cbr -e 512 -c 2 -a 0 -i 7 -k AGT
+ -t 11.426949398 -s 1 -d 5 -p cbr -e 532 -c 2 -a 0 -i 7 -k RTR 
- -t 11.426949398 -s 1 -d 5 -p cbr -e 532 -c 2 -a 0 -i 7 -k RTR
h -t 11.426949398 -s 1 -d 5 -p cbr -e 532 -c 2 -a 0 -i 7 -k RTR
r -t 11.428543463 -s 5 -d 5 -p cbr -e 532 -c 2 -a 0 -i 7 -k AGT
+ -t 11.633778648 -s 1 -d -1 -p cbr -e 512 -c 2 -a 0 -i 8 -k AGT 
- -t 11.633778648 -s 1 -d -1 -p cbr -e 512 -c 2 -a 0 -i 8 -k AGT
h -t 11.633778648 -s 1 -d -1 -p cbr -e 512 -c 2 -a 0 -i 8 -k AGT
+ -t 11.633778648 -s 1 -d 5 -p cbr -e 532 -c 2 -a 0 -i 8 -k RTR 
- -t 11.633778648 -s 1 -d 5 -p cbr -e 532 -c 2 -a 0 -i 8 -k RTR
h -t 11.633778648 -s 1 -d 5 -p cbr -e 532 -c 2 -a 0 -i 8 -k RTR
r -t 11.635372714 -s 5 -d 5 -p cbr -e 532 -c 2 -a 0 -i 8 -k AGT
+ -t 11.955025424 -s 1 -d -1 -p cbr -e 512 -c 2 -a 0 -i 9 -k AGT 
- -t 11.955025424 -s 1 -d -1 -p cbr -e 512 -c 2 -a 0 -i 9 -k AGT
h -t 11.955025424 -s 1 -d -1 -p cbr -e 512 -c 2 -a 0 -i 9 -k AGT
+ -t 11.955025424 -s 1 -d 5 -p cbr -e 532 -c 2 -a 0 -i 9 -k RTR 
- -t 11.955025424 -s 1 -d 5 -p cbr -e 532 -c 2 -a 0 -i 9 -k RTR
h -t 11.955025424 -s 1 -d 5 -p cbr -e 532 -c 2 -a 0 -i 9 -k RTR
r -t 11.956619491 -s 5 -d 5 -p cbr -e 532 -c 2 -a 0 -i 9 -k AGT
n -t 12.000000 -s 0 -x 922.110023 -y 329.749795 -U -2.119160 -V 19.042446 -T 1.000407
n -t 12.000000 -s 1 -x 631.310000 -y 640.390000 -U 5.156290 -V -1.388625 -T 0.979386
n -t 12.000000 -s 10 -x 274.938671 -y 105.056244 -U 4.741356 -V 13.363830 -T 0.999994
n -t 12.000000 -s 11 -x 246.620000 -y 271.080000 -U 2.712353 -V -3.653169 -T 0.999133
n -t 12.000000 -s 12 -x 483.150000 -y 268.470000 -U 0.000000 -V 0.000000 -T 0.000000
n -t 12.000000 -s 2 -x 856.138591 -y 643.220612 -U 7.758254 -V -3.373588 -T 0.999118
n -t 12.000000 -s 3 -x 551.590000 -y 384.960000 -U -4.332228 -V 12.214475 -T 0.997178
n -t 12.000000 -s 4 -x 640.242929 -y 635.277071 -U -0.002209 -V 0.009753 -T 1.325654
n -t 12.000000 -s 5 -x 617.380000 -y 655.370000 -U -0.428317 -V -5.894459 -T 0.980582
n -t 12.000000 -s 6 -x 868.580000 -y 557.280000 -U -1.903232 -V -2.012613 -T 0.914235
n -t 12.000000 -s 7 -x 629.298599 -y 538.098210 -U 1.330031 -V 11.070389 -T 1.001030
n -t 12.000000 -s 8 -x 388.045640 -y 326.709266 -U -4.835073 -V 0.660656 -T 1.000117
n -t 12.000000 -s 9 -x 774.100000 -y 360.960000 -U -0.149922 -V 4.657588 -T 1.000518
+ -t 12.273199358 -s 1 -d -1 -p cbr -e 512 -c 2 -a 0 -i 10 -k AGT 
- -t 12.273199358 -s 1 -d -1 -p cbr -e 512 -c 2 -a 0 -i 10 -k AGT
h -t 12.273199358 -s 1 -d -1 -p cbr -e 512 -c 2 -a 0 -i 10 -k AGT
+ -t 12.273199358 -s 1 -d 5 -p cbr -e 532 -c 2 -a 0 -i 10 -k RTR 
- -t 12.273199358 -s 1 -d 5 -p cbr -e 532 -c 2 -a 0 -i 10 -k RTR
h -t 12.273199358 -s 1 -d 5 -p cbr -e 532 -c 2 -a 0 -i 10 -k RTR
r -t 12.274793427 -s 5 -d 5 -p cbr -e 532 -c 2 -a 0 -i 10 -k AGT
+ -t 12.571933673 -s 1 -d -1 -p cbr -e 512 -c 2 -a 0 -i 11 -k AGT 
- -t 12.571933673 -s 1 -d -1 -p cbr -e 512 -c 2 -a 0 -i 11 -k AGT
h -t 12.571933673 -s 1 -d -1 -p cbr -e 512 -c 2 -a 0 -i 11 -k AGT
+ -t 12.571933673 -s 1 -d 5 -p cbr -e 532 -c 2 -a 0 -i 11 -k RTR 
- -t 12.571933673 -s 1 -d 5 -p cbr -e 532 -c 2 -a 0 -i 11 -k RTR
h -t 12.571933673 -s 1 -d 5 -p cbr -e 532 -c 2 -a 0 -i 11 -k RTR
r -t 12.573527744 -s 5 -d 5 -p cbr -e 532 -c 2 -a 0 -i 11 -k AGT
+ -t 12.940935348 -s 1 -d -1 -p cbr -e 512 -c 2 -a 0 -i 12 -k AGT 
- -t 12.940935348 -s 1 -d -1 -p cbr -e 512 -c 2 -a 0 -i 12 -k AGT
h -t 12.940935348 -s 1 -d -1 -p cbr -e 512 -c 2 -a 0 -i 12 -k AGT
+ -t 12.940935348 -s 1 -d 5 -p cbr -e 532 -c 2 -a 0 -i 12 -k RTR 
- -t 12.940935348 -s 1 -d 5 -p cbr -e 532 -c 2 -a 0 -i 12 -k RTR
h -t 12.940935348 -s 1 -d 5 -p cbr -e 532 -c 2 -a 0 -i 12 -k RTR
r -t 12.942529422 -s 5 -d 5 -p cbr -e 532 -c 2 -a 0 -i 12 -k AGT
n -t 13.000000 -s 0 -x 919.990863 -y 348.792241 -U -1.700275 -V 18.351402 -T 1.000346
n -t 13.000000 -s 1 -x 636.360000 -y 639.030000 -U 1.311894 -V -5.300050 -T 0.952821
n -t 13.000000 -s 10 -x 279.680000 -y 118.420000 -U 4.710021 -V 13.290060 -T 0.999995
n -t 13.000000 -s 11 -x 249.330000 -y 267.430000 -U 3.104181 -V -3.634895 -T 0.998653
n -t 13.000000 -s 12 -x 483.150000 -y 268.470000 -U -8.853659 -V -10.244234 -T 0.999587
n -t 13.000000 -s 13 -x 690.170000 -y 171.970000 -U 0.000000 -V 0.000000 -T 0.000000
n -t 13.000000 -s 2 -x 863.890000 -y 639.850000 -U 9.304014 -V -4.031739 -T 0.999569
n -t 13.000000 -s 3 -x 547.270000 -y 397.140000 -U -2.016329 -V 15.358207 -T 0.996861
n -t 13.000000 -s 4 -x 640.240720 -y 635.286824 -U -0.000000 -V 0.000000 -T 0.000000
n -t 13.000000 -s 5 -x 616.960000 -y 649.590000 -U 5.159759 -V -6.113664 -T 0.922524
n -t 13.000000 -s 6 -x 866.840000 -y 555.440000 -U -0.089983 -V -4.689137 -T 1.000184
n -t 13.000000 -s 7 -x 630.628630 -y 549.168600 -U 1.400701 -V 11.615853 -T 1.000478
n -t 13.000000 -s 8 -x 383.210567 -y 327.369923 -U -4.399286 -V 0.599903 -T 1.000291
n -t 13.000000 -s 9 -x 773.950078 -y 365.617588 -U -1.526468 -V 4.498044 -T 0.956507
+ -t 13.188865774 -s 1 -d -1 -p cbr -e 512 -c 2 -a 0 -i 13 -k AGT 
- -t 13.188865774 -s 1 -d -1 -p cbr -e 512 -c 2 -a 0 -i 13 -k AGT
h -t 13.188865774 -s 1 -d -1 -p cbr -e 512 -c 2 -a 0 -i 13 -k AGT
+ -t 13.188865774 -s 1 -d 5 -p cbr -e 532 -c 2 -a 0 -i 13 -k RTR 
- -t 13.188865774 -s 1 -d 5 -p cbr -e 532 -c 2 -a 0 -i 13 -k RTR
h -t 13.188865774 -s 1 -d 5 -p cbr -e 532 -c 2 -a 0 -i 13 -k RTR
r -t 13.190459845 -s 5 -d 5 -p cbr -e 532 -c 2 -a 0 -i 13 -k AGT
+ -t 13.530142144 -s 1 -d -1 -p cbr -e 512 -c 2 -a 0 -i 14 -k AGT 
- -t 13.530142144 -s 1 -d -1 -p cbr -e 512 -c 2 -a 0 -i 14 -k AGT
h -t 13.530142144 -s 1 -d -1 -p cbr -e 512 -c 2 -a 0 -i 14 -k AGT
+ -t 13.530142144 -s 1 -d 5 -p cbr -e 532 -c 2 -a 0 -i 14 -k RTR 
- -t 13.530142144 -s 1 -d 5 -p cbr -e 532 -c 2 -a 0 -i 14 -k RTR
h -t 13.530142144 -s 1 -d 5 -p cbr -e 532 -c 2 -a 0 -i 14 -k RTR
r -t 13.531736211 -s 5 -d 5 -p cbr -e 532 -c 2 -a 0 -i 14 -k AGT
+ -t 13.838914926 -s 1 -d -1 -p cbr -e 512 -c 2 -a 0 -i 15 -k AGT 
- -t 13.838914926 -s 1 -d -1 -p cbr -e 512 -c 2 -a 0 -i 15 -k AGT
h -t 13.838914926 -s 1 -d -1 -p cbr -e 512 -c 2 -a 0 -i 15 -k AGT
+ -t 13.838914926 -s 1 -d 5 -p cbr -e 532 -c 2 -a 0 -i 15 -k RTR 
- -t 13.838914926 -s 1 -d 5 -p cbr -e 532 -c 2 -a 0 -i 15 -k RTR
h -t 13.838914926 -s 1 -d 5 -p cbr -e 532 -c 2 -a 0 -i 15 -k RTR
r -t 13.840508989 -s 5 -d 5 -p cbr -e 532 -c 2 -a 0 -i 15 -k AGT
+ -t 13.985964962 -s 1 -d -1 -p cbr -e 512 -c 2 -a 0 -i 16 -k AGT 
- -t 13.985964962 -s 1 -d -1 -p cbr -e 512 -c 2 -a 0 -i 16 -k AGT
h -t 13.985964962 -s 1 -d -1 -p cbr -e 512 -c 2 -a 0 -i 16 -k AGT
+ -t 13.985964962 -s 1 -d 5 -p cbr -e 532 -c 2 -a 0 -i 16 -k RTR 
- -t 13.985964962 -s 1 -d 5 -p cbr -e 532 -c 2 -a 0 -i 16 -k RTR
h -t 13.985964962 -s 1 -d 5 -p cbr -e 532 -c 2 -a 0 -i 16 -k RTR
r -t 13.987559025 -s 5 -d 5 -p cbr -e 532 -c 2 -a 0 -i 16 -k AGT
n -t 14.000000 -s 0 -x 918.290589 -y 367.143644 -U -1.079173 -V 13.888135 -T 1.001312
n -t 14.000000 -s 1 -x 637.610000 -y 633.980000 -U -0.889612 -V -7.406767 -T 1.000437
n -t 14.000000 -s 10 -x 284.390000 -y 131.710000 -U 4.650306 -V 13.130863 -T 0.999934
n -t 14.000000 -s 11 -x 252.430000 -y 263.800000 -U 3.805583 -V -4.176127 -T 0.998533
n -t 14.000000 -s 12 -x 474.300000 -y 258.230000 -U -9.926505 -V -9.456670 -T 1.000352
n -t 14.000000 -s 13 -x 690.170000 -y 171.970000 -U 7.029835 -V -12.487206 -T 0.972996
n -t 14.000000 -s 14 -x 806.250000 -y 666.270000 -U 0.000000 -V 0.000000 -T 0.000000
n -t 14.000000 -s 2 -x 873.190000 -y 635.820000 -U 10.823016 -V -4.701310 -T 0.999721
n -t 14.000000 -s 3 -x 545.260000 -y 412.450000 -U 1.737314 -V 17.122086 -T 0.995790
n -t 14.000000 -s 4 -x 640.240720 -y 635.286824 -U -0.000000 -V 0.000000 -T 0.000000
n -t 14.000000 -s 5 -x 621.720000 -y 643.950000 -U 6.907957 -V -3.046741 -T 0.994505
n -t 14.000000 -s 6 -x 866.750017 -y 550.750863 -U -0.120167 -V -6.408874 -T 0.998750
n -t 14.000000 -s 7 -x 632.029331 -y 560.784452 -U 1.429294 -V 11.854144 -T 1.000962
n -t 14.000000 -s 8 -x 378.811281 -y 327.969825 -U -5.061981 -V 0.698891 -T 1.001837
n -t 14.000000 -s 9 -x 772.490000 -y 369.920000 -U -4.805191 -V 1.824756 -T 0.986433
+ -t 14.336676873 -s 1 -d -1 -p cbr -e 512 -c 2 -a 0 -i 17 -k AGT 
- -t 14.336676873 -s 1 -d -1 -p cbr -e 512 -c 2 -a 0 -i 17 -k AGT
h -t 14.336676873 -s 1 -d -1 -p cbr -e 512 -c 2 -a 0 -i 17 -k AGT
+ -t 14.336676873 -s 1 -d 5 -p cbr -e 532 -c 2 -a 0 -i 17 -k RTR 
- -t 14.336676873 -s 1 -d 5 -p cbr -e 532 -c 2 -a 0 -i 17 -k RTR
h -t 14.336676873 -s 1 -d 5 -p cbr -e 532 -c 2 -a 0 -i 17 -k RTR
r -t 14.338270931 -s 5 -d 5 -p cbr -e 532 -c 2 -a 0 -i 17 -k AGT
+ -t 14.680338449 -s 1 -d -1 -p cbr -e 512 -c 2 -a 0 -i 18 -k AGT 
- -t 14.680338449 -s 1 -d -1 -p cbr -e 512 -c 2 -a 0 -i 18 -k AGT
h -t 14.680338449 -s 1 -d -1 -p cbr -e 512 -c 2 -a 0 -i 18 -k AGT
+ -t 14.680338449 -s 1 -d 5 -p cbr -e 532 -c 2 -a 0 -i 18 -k RTR 
- -t 14.680338449 -s 1 -d 5 -p cbr -e 532 -c 2 -a 0 -i 18 -k RTR
h -t 14.680338449 -s 1 -d 5 -p cbr -e 532 -c 2 -a 0 -i 18 -k RTR