M 0.00000 0 (663.00, 484.00, 0.00), (0.00, 0.00), 0.00
M 0.00000 21 (263.00, 306.00, 0.00), (100.00, 100.00), 40.00
M 0.00000 20 (350.00, 434.00, 0.00), (150.00, 175.00), 40.00
M 0.00000 8 (761.00, 234.00, 0.00), (335.00, 500.00), 5.00
M 0.00000 11 (825.00, 140.00, 0.00), (565.00, 420.00), 5.00
M 0.00000 17 (908.00, 344.00, 0.00), (765.00, 320.00), 5.00
M 1.00000 2 (791.00, 406.00, 0.00), (615.00, 340.00), 5.00
M 1.00000 3 (668.00, 393.00, 0.00), (680.00, 458.00), 5.00
M 1.00000 12 (509.00, 34.00, 0.00), (700.00, 20.00), 5.00
M 1.00000 14 (822.00, 51.00, 0.00), (195.00, 185.00), 5.00
M 1.00000 15 (373.00, 271.00, 0.00), (387.00, 590.00), 5.00
M 1.00000 18 (600.00, 180.00, 0.00), (109.00, 20.00), 5.00
M 1.00000 19 (455.00, 479.00, 0.00), (175.00, 185.00), 5.00
s 1.000000000 _21_ AGT  --- 0 cbr 1000 [0 0 0 0] ------- [21:0 17:0 32 0] [0] 0 0
r 1.000000000 _21_ RTR  --- 0 cbr 1000 [0 0 0 0] ------- [21:0 17:0 32 0] [0] 0 0
s 1.000000000 _21_ RTR  --- 0 AODV 48 [0 0 0 0] ------- [21:255 -1:255 30 0] [0x2 1 1 [17 0] [21 4]] (REQUEST)
s 1.000535000 _21_ MAC  --- 0 AODV 106 [0 ffffffff 15 800] ------- [21:255 -1:255 30 0] [0x2 1 1 [17 0] [21 4]] (REQUEST)
r 1.001383232 _22_ MAC  --- 0 AODV 48 [0 ffffffff 15 800] ------- [21:255 -1:255 30 0] [0x2 1 1 [17 0] [21 4]] (REQUEST)
r 1.001383450 _15_ MAC  --- 0 AODV 48 [0 ffffffff 15 800] ------- [21:255 -1:255 30 0] [0x2 1 1 [17 0] [21 4]] (REQUEST)
r 1.001383516 _20_ MAC  --- 0 AODV 48 [0 ffffffff 15 800] ------- [21:255 -1:255 30 0] [0x2 1 1 [17 0] [21 4]] (REQUEST)
r 1.001383532 _23_ MAC  --- 0 AODV 48 [0 ffffffff 15 800] ------- [21:255 -1:255 30 0] [0x2 1 1 [17 0] [21 4]] (REQUEST)
r 1.001408232 _22_ RTR  --- 0 AODV 48 [0 ffffffff 15 800] ------- [21:255 -1:255 30 0] [0x2 1 1 [17 0] [21 4]] (REQUEST)
r 1.001408450 _15_ RTR  --- 0 AODV 48 [0 ffffffff 15 800] ------- [21:255 -1:255 30 0] [0x2 1 1 [17 0] [21 4]] (REQUEST)
r 1.001408516 _20_ RTR  --- 0 AODV 48 [0 ffffffff 15 800] ------- [21:255 -1:255 30 0] [0x2 1 1 [17 0] [21 4]] (REQUEST)
r 1.001408532 _23_ RTR  --- 0 AODV 48 [0 ffffffff 15 800] ------- [21:255 -1:255 30 0] [0x2 1 1 [17 0] [21 4]] (REQUEST)
s 1.001550278 _22_ RTR  --- 0 AODV 48 [0 ffffffff 15 800] ------- [22:255 -1:255 29 0] [0x2 2 1 [17 0] [21 4]] (REQUEST)
s 1.001785278 _22_ MAC  --- 0 AODV 106 [0 ffffffff 16 800] ------- [22:255 -1:255 29 0] [0x2 2 1 [17 0] [21 4]] (REQUEST)
s 1.002289676 _15_ RTR  --- 0 AODV 48 [0 ffffffff 15 800] ------- [15:255 -1:255 29 0] [0x2 2 1 [17 0] [21 4]] (REQUEST)
r 1.002633510 _21_ MAC  --- 0 AODV 48 [0 ffffffff 16 800] ------- [22:255 -1:255 29 0] [0x2 2 1 [17 0] [21 4]] (REQUEST)
r 1.002633599 _23_ MAC  --- 0 AODV 48 [0 ffffffff 16 800] ------- [22:255 -1:255 29 0] [0x2 2 1 [17 0] [21 4]] (REQUEST)
r 1.002633705 _15_ MAC  --- 0 AODV 48 [0 ffffffff 16 800] ------- [22:255 -1:255 29 0] [0x2 2 1 [17 0] [21 4]] (REQUEST)
r 1.002633903 _24_ MAC  --- 0 AODV 48 [0 ffffffff 16 800] ------- [22:255 -1:255 29 0] [0x2 2 1 [17 0] [21 4]] (REQUEST)
r 1.002633957 _20_ MAC  --- 0 AODV 48 [0 ffffffff 16 800] ------- [22:255 -1:255 29 0] [0x2 2 1 [17 0] [21 4]] (REQUEST)
r 1.002634058 _9_ MAC  --- 0 AODV 48 [0 ffffffff 16 800] ------- [22:255 -1:255 29 0] [0x2 2 1 [17 0] [21 4]] (REQUEST)
r 1.002658510 _21_ RTR  --- 0 AODV 48 [0 ffffffff 16 800] ------- [22:255 -1:255 29 0] [0x2 2 1 [17 0] [21 4]] (REQUEST)
r 1.002658599 _23_ RTR  --- 0 AODV 48 [0 ffffffff 16 800] ------- [22:255 -1:255 29 0] [0x2 2 1 [17 0] [21 4]] (REQUEST)
r 1.002658705 _15_ RTR  --- 0 AODV 48 [0 ffffffff 16 800] ------- [22:255 -1:255 29 0] [0x2 2 1 [17 0] [21 4]] (REQUEST)
r 1.002658903 _24_ RTR  --- 0 AODV 48 [0 ffffffff 16 800] ------- [22:255 -1:255 29 0] [0x2 2 1 [17 0] [21 4]] (REQUEST)
r 1.002658957 _20_ RTR  --- 0 AODV 48 [0 ffffffff 16 800] ------- [22:255 -1:255 29 0] [0x2 2 1 [17 0] [21 4]] (REQUEST)
r 1.002659058 _9_ RTR  --- 0 AODV 48 [0 ffffffff 16 800] ------- [22:255 -1:255 29 0] [0x2 2 1 [17 0] [21 4]] (REQUEST)
s 1.002883705 _15_ MAC  --- 0 AODV 106 [0 ffffffff f 800] ------- [15:255 -1:255 29 0] [0x2 2 1 [17 0] [21 4]] (REQUEST)
r 1.003732132 _22_ MAC  --- 0 AODV 48 [0 ffffffff f 800] ------- [15:255 -1:255 29 0] [0x2 2 1 [17 0] [21 4]] (REQUEST)
r 1.003732155 _21_ MAC  --- 0 AODV 48 [0 ffffffff f 800] ------- [15:255 -1:255 29 0] [0x2 2 1 [17 0] [21 4]] (REQUEST)
r 1.003732170 _20_ MAC  --- 0 AODV 48 [0 ffffffff f 800] ------- [15:255 -1:255 29 0] [0x2 2 1 [17 0] [21 4]] (REQUEST)
r 1.003732254 _1_ MAC  --- 0 AODV 48 [0 ffffffff f 800] ------- [15:255 -1:255 29 0] [0x2 2 1 [17 0] [21 4]] (REQUEST)
r 1.003732323 _9_ MAC  --- 0 AODV 48 [0 ffffffff f 800] ------- [15:255 -1:255 29 0] [0x2 2 1 [17 0] [21 4]] (REQUEST)
r 1.003732343 _4_ MAC  --- 0 AODV 48 [0 ffffffff f 800] ------- [15:255 -1:255 29 0] [0x2 2 1 [17 0] [21 4]] (REQUEST)
r 1.003732388 _23_ MAC  --- 0 AODV 48 [0 ffffffff f 800] ------- [15:255 -1:255 29 0] [0x2 2 1 [17 0] [21 4]] (REQUEST)
r 1.003732450 _19_ MAC  --- 0 AODV 48 [0 ffffffff f 800] ------- [15:255 -1:255 29 0] [0x2 2 1 [17 0] [21 4]] (REQUEST)
r 1.003732520 _18_ MAC  --- 0 AODV 48 [0 ffffffff f 800] ------- [15:255 -1:255 29 0] [0x2 2 1 [17 0] [21 4]] (REQUEST)
r 1.003732536 _24_ MAC  --- 0 AODV 48 [0 ffffffff f 800] ------- [15:255 -1:255 29 0] [0x2 2 1 [17 0] [21 4]] (REQUEST)
r 1.003757132 _22_ RTR  --- 0 AODV 48 [0 ffffffff f 800] ------- [15:255 -1:255 29 0] [0x2 2 1 [17 0] [21 4]] (REQUEST)
r 1.003757155 _21_ RTR  --- 0 AODV 48 [0 ffffffff f 800] ------- [15:255 -1:255 29 0] [0x2 2 1 [17 0] [21 4]] (REQUEST)
r 1.003757170 _20_ RTR  --- 0 AODV 48 [0 ffffffff f 800] ------- [15:255 -1:255 29 0] [0x2 2 1 [17 0] [21 4]] (REQUEST)
r 1.003757254 _1_ RTR  --- 0 AODV 48 [0 ffffffff f 800] ------- [15:255 -1:255 29 0] [0x2 2 1 [17 0] [21 4]] (REQUEST)
s 1.003757254 _1_ RTR  --- 0 AODV 44 [0 0 0 0] ------- [1:255 21:255 30 15] [0x4 1 [1 102] 10.000000] (REPLY)
r 1.003757323 _9_ RTR  --- 0 AODV 48 [0 ffffffff f 800] ------- [15:255 -1:255 29 0] [0x2 2 1 [17 0] [21 4]] (REQUEST)
r 1.003757343 _4_ RTR  --- 0 AODV 48 [0 ffffffff f 800] ------- [15:255 -1:255 29 0] [0x2 2 1 [17 0] [21 4]] (REQUEST)
r 1.003757388 _23_ RTR  --- 0 AODV 48 [0 ffffffff f 800] ------- [15:255 -1:255 29 0] [0x2 2 1 [17 0] [21 4]] (REQUEST)
r 1.003757450 _19_ RTR  --- 0 AODV 48 [0 ffffffff f 800] ------- [15:255 -1:255 29 0] [0x2 2 1 [17 0] [21 4]] (REQUEST)
r 1.003757520 _18_ RTR  --- 0 AODV 48 [0 ffffffff f 800] ------- [15:255 -1:255 29 0] [0x2 2 1 [17 0] [21 4]] (REQUEST)
r 1.003757536 _24_ RTR  --- 0 AODV 48 [0 ffffffff f 800] ------- [15:255 -1:255 29 0] [0x2 2 1 [17 0] [21 4]] (REQUEST)
s 1.004172254 _1_ MAC  --- 0 ARP 86 [0 ffffffff 1 806] ------- [REQUEST 1/1 0/15]
s 1.004185396 _19_ RTR  --- 0 AODV 48 [0 ffffffff f 800] ------- [19:255 -1:255 28 0] [0x2 3 1 [17 0] [21 4]] (REQUEST)
r 1.004860497 _19_ MAC  --- 0 ARP 28 [0 ffffffff 1 806] ------- [REQUEST 1/1 0/15]
r 1.004860676 _4_ MAC  --- 0 ARP 28 [0 ffffffff 1 806] ------- [REQUEST 1/1 0/15]
r 1.004860723 _20_ MAC  --- 0 ARP 28 [0 ffffffff 1 806] ------- [REQUEST 1/1 0/15]
r 1.004860803 _15_ MAC  --- 0 ARP 28 [0 ffffffff 1 806] ------- [REQUEST 1/1 0/15]
r 1.004860929 _3_ MAC  --- 0 ARP 28 [0 ffffffff 1 806] ------- [REQUEST 1/1 0/15]
r 1.004860959 _0_ MAC  --- 0 ARP 28 [0 ffffffff 1 806] ------- [REQUEST 1/1 0/15]
s 1.005150497 _19_ MAC  --- 0 AODV 106 [0 ffffffff 13 800] ------- [19:255 -1:255 28 0] [0x2 3 1 [17 0] [21 4]] (REQUEST)
s 1.005398797 _4_ RTR  --- 0 AODV 48 [0 ffffffff f 800] ------- [4:255 -1:255 28 0] [0x2 3 1 [17 0] [21 4]] (REQUEST)
s 1.005749848 _9_ RTR  --- 0 AODV 48 [0 ffffffff 16 800] ------- [9:255 -1:255 28 0] [0x2 3 1 [17 0] [21 4]] (REQUEST)
s 1.005820250 _20_ RTR  --- 0 AODV 48 [0 ffffffff 15 800] ------- [20:255 -1:255 29 0] [0x2 2 1 [17 0] [21 4]] (REQUEST)
r 1.005998740 _1_ MAC  --- 0 AODV 48 [0 ffffffff 13 800] ------- [19:255 -1:255 28 0] [0x2 3 1 [17 0] [21 4]] (REQUEST)
r 1.005998999 _20_ MAC  --- 0 AODV 48 [0 ffffffff 13 800] ------- [19:255 -1:255 28 0] [0x2 3 1 [17 0] [21 4]] (REQUEST)
r 1.005999128 _4_ MAC  --- 0 AODV 48 [0 ffffffff 13 800] ------- [19:255 -1:255 28 0] [0x2 3 1 [17 0] [21 4]] (REQUEST)
r 1.005999190 _0_ MAC  --- 0 AODV 48 [0 ffffffff 13 800] ------- [19:255 -1:255 28 0] [0x2 3 1 [17 0] [21 4]] (REQUEST)
r 1.005999242 _15_ MAC  --- 0 AODV 48 [0 ffffffff 13 800] ------- [19:255 -1:255 28 0] [0x2 3 1 [17 0] [21 4]] (REQUEST)
r 1.005999263 _3_ MAC  --- 0 AODV 48 [0 ffffffff 13 800] ------- [19:255 -1:255 28 0] [0x2 3 1 [17 0] [21 4]] (REQUEST)
r 1.006023740 _1_ RTR  --- 0 AODV 48 [0 ffffffff 13 800] ------- [19:255 -1:255 28 0] [0x2 3 1 [17 0] [21 4]] (REQUEST)
r 1.006023999 _20_ RTR  --- 0 AODV 48 [0 ffffffff 13 800] ------- [19:255 -1:255 28 0] [0x2 3 1 [17 0] [21 4]] (REQUEST)
r 1.006024128 _4_ RTR  --- 0 AODV 48 [0 ffffffff 13 800] ------- [19:255 -1:255 28 0] [0x2 3 1 [17 0] [21 4]] (REQUEST)
r 1.006024190 _0_ RTR  --- 0 AODV 48 [0 ffffffff 13 800] ------- [19:255 -1:255 28 0] [0x2 3 1 [17 0] [21 4]] (REQUEST)
r 1.006024242 _15_ RTR  --- 0 AODV 48 [0 ffffffff 13 800] ------- [19:255 -1:255 28 0] [0x2 3 1 [17 0] [21 4]] (REQUEST)
r 1.006024263 _3_ RTR  --- 0 AODV 48 [0 ffffffff 13 800] ------- [19:255 -1:255 28 0] [0x2 3 1 [17 0] [21 4]] (REQUEST)
s 1.006248999 _20_ MAC  --- 0 AODV 106 [0 ffffffff 14 800] ------- [20:255 -1:255 29 0] [0x2 2 1 [17 0] [21 4]] (REQUEST)
r 1.007097464 _15_ MAC  --- 0 AODV 48 [0 ffffffff 14 800] ------- [20:255 -1:255 29 0] [0x2 2 1 [17 0] [21 4]] (REQUEST)
r 1.007097468 _1_ MAC  --- 0 AODV 48 [0 ffffffff 14 800] ------- [20:255 -1:255 29 0] [0x2 2 1 [17 0] [21 4]] (REQUEST)
r 1.007097501 _19_ MAC  --- 0 AODV 48 [0 ffffffff 14 800] ------- [20:255 -1:255 29 0] [0x2 2 1 [17 0] [21 4]] (REQUEST)
r 1.007097515 _21_ MAC  --- 0 AODV 48 [0 ffffffff 14 800] ------- [20:255 -1:255 29 0] [0x2 2 1 [17 0] [21 4]] (REQUEST)
r 1.007097678 _22_ MAC  --- 0 AODV 48 [0 ffffffff 14 800] ------- [20:255 -1:255 29 0] [0x2 2 1 [17 0] [21 4]] (REQUEST)
r 1.007097821 _4_ MAC  --- 0 AODV 48 [0 ffffffff 14 800] ------- [20:255 -1:255 29 0] [0x2 2 1 [17 0] [21 4]] (REQUEST)
r 1.007122464 _15_ RTR  --- 0 AODV 48 [0 ffffffff 14 800] ------- [20:255 -1:255 29 0] [0x2 2 1 [17 0] [21 4]] (REQUEST)
r 1.007122468 _1_ RTR  --- 0 AODV 48 [0 ffffffff 14 800] ------- [20:255 -1:255 29 0] [0x2 2 1 [17 0] [21 4]] (REQUEST)
r 1.007122501 _19_ RTR  --- 0 AODV 48 [0 ffffffff 14 800] ------- [20:255 -1:255 29 0] [0x2 2 1 [17 0] [21 4]] (REQUEST)
r 1.007122515 _21_ RTR  --- 0 AODV 48 [0 ffffffff 14 800] ------- [20:255 -1:255 29 0] [0x2 2 1 [17 0] [21 4]] (REQUEST)
r 1.007122678 _22_ RTR  --- 0 AODV 48 [0 ffffffff 14 800] ------- [20:255 -1:255 29 0] [0x2 2 1 [17 0] [21 4]] (REQUEST)
r 1.007122821 _4_ RTR  --- 0 AODV 48 [0 ffffffff 14 800] ------- [20:255 -1:255 29 0] [0x2 2 1 [17 0] [21 4]] (REQUEST)
s 1.007207464 _15_ MAC  --- 0 RTS 44 [52e 1 f 0] 
r 1.007560013 _1_ MAC  --- 0 RTS 44 [52e 1 f 0] 
s 1.007570013 _1_ MAC  --- 0 CTS 38 [3f4 f 0 0] 
r 1.007874562 _15_ MAC  --- 0 CTS 38 [3f4 f 0 0] 
s 1.007884562 _15_ MAC  --- 0 ARP 86 [13a 1 f 806] ------- [REPLY 15/15 1/1]
r 1.008573111 _1_ MAC  --- 0 ARP 28 [13a 1 f 806] ------- [REPLY 15/15 1/1]
s 1.008583111 _1_ MAC  --- 0 ACK 38 [0 f 0 0] 
r 1.008887660 _15_ MAC  --- 0 ACK 38 [0 f 0 0] 
s 1.009017533 _4_ MAC  --- 0 AODV 106 [0 ffffffff 4 800] ------- [4:255 -1:255 28 0] [0x2 3 1 [17 0] [21 4]] (REQUEST)
s 1.009047554 _24_ RTR  --- 0 AODV 48 [0 ffffffff 16 800] ------- [24:255 -1:255 28 0] [0x2 3 1 [17 0] [21 4]] (REQUEST)
s 1.009400087 _23_ RTR  --- 0 AODV 48 [0 ffffffff 15 800] ------- [23:255 -1:255 29 0] [0x2 2 1 [17 0] [21 4]] (REQUEST)
r 1.009865955 _1_ MAC  --- 0 AODV 48 [0 ffffffff 4 800] ------- [4:255 -1:255 28 0] [0x2 3 1 [17 0] [21 4]] (REQUEST)
r 1.009865973 _3_ MAC  --- 0 AODV 48 [0 ffffffff 4 800] ------- [4:255 -1:255 28 0] [0x2 3 1 [17 0] [21 4]] (REQUEST)
r 1.009866020 _18_ MAC  --- 0 AODV 48 [0 ffffffff 4 800] ------- [4:255 -1:255 28 0] [0x2 3 1 [17 0] [21 4]] (REQUEST)
r 1.009866097 _7_ MAC  --- 0 AODV 48 [0 ffffffff 4 800] ------- [4:255 -1:255 28 0] [0x2 3 1 [17 0] [21 4]] (REQUEST)
r 1.009866165 _19_ MAC  --- 0 AODV 48 [0 ffffffff 4 800] ------- [4:255 -1:255 28 0] [0x2 3 1 [17 0] [21 4]] (REQUEST)
r 1.009866171 _15_ MAC  --- 0 AODV 48 [0 ffffffff 4 800] ------- [4:255 -1:255 28 0] [0x2 3 1 [17 0] [21 4]] (REQUEST)
r 1.009866182 _0_ MAC  --- 0 AODV 48 [0 ffffffff 4 800] ------- [4:255 -1:255 28 0] [0x2 3 1 [17 0] [21 4]] (REQUEST)
r 1.009866251 _8_ MAC  --- 0 AODV 48 [0 ffffffff 4 800] ------- [4:255 -1:255 28 0] [0x2 3 1 [17 0] [21 4]] (REQUEST)
r 1.009866263 _9_ MAC  --- 0 AODV 48 [0 ffffffff 4 800] ------- [4:255 -1:255 28 0] [0x2 3 1 [17 0] [21 4]] (REQUEST)
r 1.009866277 _5_ MAC  --- 0 AODV 48 [0 ffffffff 4 800] ------- [4:255 -1:255 28 0] [0x2 3 1 [17 0] [21 4]] (REQUEST)
r 1.009866356 _20_ MAC  --- 0 AODV 48 [0 ffffffff 4 800] ------- [4:255 -1:255 28 0] [0x2 3 1 [17 0] [21 4]] (REQUEST)
r 1.009866361 _2_ MAC  --- 0 AODV 48 [0 ffffffff 4 800] ------- [4:255 -1:255 28 0] [0x2 3 1 [17 0] [21 4]] (REQUEST)
r 1.009890955 _1_ RTR  --- 0 AODV 48 [0 ffffffff 4 800] ------- [4:255 -1:255 28 0] [0x2 3 1 [17 0] [21 4]] (REQUEST)
r 1.009890973 _3_ RTR  --- 0 AODV 48 [0 ffffffff 4 800] ------- [4:255 -1:255 28 0] [0x2 3 1 [17 0] [21 4]] (REQUEST)
r 1.009891020 _18_ RTR  --- 0 AODV 48 [0 ffffffff 4 800] ------- [4:255 -1:255 28 0] [0x2 3 1 [17 0] [21 4]] (REQUEST)
r 1.009891097 _7_ RTR  --- 0 AODV 48 [0 ffffffff 4 800] ------- [4:255 -1:255 28 0] [0x2 3 1 [17 0] [21 4]] (REQUEST)
s 1.009891097 _7_ RTR  --- 0 AODV 44 [0 0 0 0] ------- [7:255 21:255 30 4] [0x4 1 [7 102] 10.000000] (REPLY)
r 1.009891165 _19_ RTR  --- 0 AODV 48 [0 ffffffff 4 800] ------- [4:255 -1:255 28 0] [0x2 3 1 [17 0] [21 4]] (REQUEST)
r 1.009891171 _15_ RTR  --- 0 AODV 48 [0 ffffffff 4 800] ------- [4:255 -1:255 28 0] [0x2 3 1 [17 0] [21 4]] (REQUEST)
r 1.009891182 _0_ RTR  --- 0 AODV 48 [0 ffffffff 4 800] ------- [4:255 -1:255 28 0] [0x2 3 1 [17 0] [21 4]] (REQUEST)
r 1.009891251 _8_ RTR  --- 0 AODV 48 [0 ffffffff 4 800] ------- [4:255 -1:255 28 0] [0x2 3 1 [17 0] [21 4]] (REQUEST)
r 1.009891263 _9_ RTR  --- 0 AODV 48 [0 ffffffff 4 800] ------- [4:255 -1:255 28 0] [0x2 3 1 [17 0] [21 4]] (REQUEST)
r 1.009891277 _5_ RTR  --- 0 AODV 48 [0 ffffffff 4 800] ------- [4:255 -1:255 28 0] [0x2 3 1 [17 0] [21 4]] (REQUEST)
r 1.009891356 _20_ RTR  --- 0 AODV 48 [0 ffffffff 4 800] ------- [4:255 -1:255 28 0] [0x2 3 1 [17 0] [21 4]] (REQUEST)
r 1.009891361 _2_ RTR  --- 0 AODV 48 [0 ffffffff 4 800] ------- [4:255 -1:255 28 0] [0x2 3 1 [17 0] [21 4]] (REQUEST)
s 1.010015955 _1_ MAC  --- 0 RTS 44 [5ae f 1 0] 
s 1.010111047 _0_ RTR  --- 0 AODV 48 [0 ffffffff 13 800] ------- [0:255 -1:255 27 0] [0x2 4 1 [17 0] [21 4]] (REQUEST)
s 1.010158197 _18_ RTR  --- 0 AODV 48 [0 ffffffff f 800] ------- [18:255 -1:255 28 0] [0x2 3 1 [17 0] [21 4]] (REQUEST)
r 1.010368504 _15_ MAC  --- 0 RTS 44 [5ae f 1 0] 
s 1.010378504 _15_ MAC  --- 0 CTS 38 [474 1 0 0] 
r 1.010683053 _1_ MAC  --- 0 CTS 38 [474 1 0 0] 
s 1.010693053 _1_ MAC  --- 0 AODV 102 [13a f 1 800] ------- [1:255 21:255 30 15] [0x4 1 [1 102] 10.000000] (REPLY)
s 1.011210750 _3_ RTR  --- 0 AODV 48 [0 ffffffff 13 800] ------- [3:255 -1:255 27 0] [0x2 4 1 [17 0] [21 4]] (REQUEST)
r 1.011509602 _15_ MAC  --- 0 AODV 44 [13a f 1 800] ------- [1:255 21:255 30 15] [0x4 1 [1 102] 10.000000] (REPLY)
s 1.011519602 _15_ MAC  --- 0 ACK 38 [0 1 0 0] 
r 1.011534602 _15_ RTR  --- 0 AODV 44 [13a f 1 800] ------- [1:255 21:255 30 15] [0x4 1 [1 102] 10.000000] (REPLY)
f 1.011534602 _15_ RTR  --- 0 AODV 44 [13a f 1 800] ------- [1:255 21:255 29 21] [0x4 2 [1 102] 10.000000] (REPLY)
r 1.011824151 _1_ MAC  --- 0 ACK 38 [0 1 0 0] 
s 1.012144021 _9_ MAC  --- 0 AODV 106 [0 ffffffff 9 800] ------- [9:255 -1:255 28 0] [0x2 3 1 [17 0] [21 4]] (REQUEST)
r 1.012992318 _12_ MAC  --- 0 AODV 48 [0 ffffffff 9 800] ------- [9:255 -1:255 28 0] [0x2 3 1 [17 0] [21 4]] (REQUEST)
r 1.012992484 _18_ MAC  --- 0 AODV 48 [0 ffffffff 9 800] ------- [9:255 -1:255 28 0] [0x2 3 1 [17 0] [21 4]] (REQUEST)
r 1.012992638 _24_ MAC  --- 0 AODV 48 [0 ffffffff 9 800] ------- [9:255 -1:255 28 0] [0x2 3 1 [17 0] [21 4]] (REQUEST)
r 1.012992638 _15_ MAC  --- 0 AODV 48 [0 ffffffff 9 800] ------- [9:255 -1:255 28 0] [0x2 3 1 [17 0] [21 4]] (REQUEST)
r 1.012992655 _6_ MAC  --- 0 AODV 48 [0 ffffffff 9 800] ------- [9:255 -1:255 28 0] [0x2 3 1 [17 0] [21 4]] (REQUEST)
r 1.012992719 _7_ MAC  --- 0 AODV 48 [0 ffffffff 9 800] ------- [9:255 -1:255 28 0] [0x2 3 1 [17 0] [21 4]] (REQUEST)
r 1.012992750 _4_ MAC  --- 0 AODV 48 [0 ffffffff 9 800] ------- [9:255 -1:255 28 0] [0x2 3 1 [17 0] [21 4]] (REQUEST)
r 1.012992774 _13_ MAC  --- 0 AODV 48 [0 ffffffff 9 800] ------- [9:255 -1:255 28 0] [0x2 3 1 [17 0] [21 4]] (REQUEST)
r 1.012992800 _22_ MAC  --- 0 AODV 48 [0 ffffffff 9 800] ------- [9:255 -1:255 28 0] [0x2 3 1 [17 0] [21 4]] (REQUEST)
r 1.012992807 _23_ MAC  --- 0 AODV 48 [0 ffffffff 9 800] ------- [9:255 -1:255 28 0] [0x2 3 1 [17 0] [21 4]] (REQUEST)
r 1.012992814 _10_ MAC  --- 0 AODV 48 [0 ffffffff 9 800] ------- [9:255 -1:255 28 0] [0x2 3 1 [17 0] [21 4]] (REQUEST)
r 1.013017318 _12_ RTR  --- 0 AODV 48 [0 ffffffff 9 800] ------- [9:255 -1:255 28 0] [0x2 3 1 [17 0] [21 4]] (REQUEST)
r 1.013017484 _18_ RTR  --- 0 AODV 48 [0 ffffffff 9 800] ------- [9:255 -1:255 28 0] [0x2 3 1 [17 0] [21 4]] (REQUEST)
r 1.013017638 _24_ RTR  --- 0 AODV 48 [0 ffffffff 9 800] ------- [9:255 -1:255 28 0] [0x2 3 1 [17 0] [21 4]] (REQUEST)
r 1.013017638 _15_ RTR  --- 0 AODV 48 [0 ffffffff 9 800] ------- [9:255 -1:255 28 0] [0x2 3 1 [17 0] [21 4]] (REQUEST)
r 1.013017655 _6_ RTR  --- 0 AODV 48 [0 ffffffff 9 800] ------- [9:255 -1:255 28 0] [0x2 3 1 [17 0] [21 4]] (REQUEST)
r 1.013017719 _7_ RTR  --- 0 AODV 48 [0 ffffffff 9 800] ------- [9:255 -1:255 28 0] [0x2 3 1 [17 0] [21 4]] (REQUEST)
r 1.013017750 _4_ RTR  --- 0 AODV 48 [0 ffffffff 9 800] ------- [9:255 -1:255 28 0] [0x2 3 1 [17 0] [21 4]] (REQUEST)
r 1.013017774 _13_ RTR  --- 0 AODV 48 [0 ffffffff 9 800] ------- [9:255 -1:255 28 0] [0x2 3 1 [17 0] [21 4]] (REQUEST)
s 1.013017774 _13_ RTR  --- 0 AODV 44 [0 0 0 0] ------- [13:255 21:255 30 9] [0x4 1 [13 102] 10.000000] (REPLY)
r 1.013017800 _22_ RTR  --- 0 AODV 48 [0 ffffffff 9 800] ------- [9:255 -1:255 28 0] [0x2 3 1 [17 0] [21 4]] (REQUEST)
r 1.013017807 _23_ RTR  --- 0 AODV 48 [0 ffffffff 9 800] ------- [9:255 -1:255 28 0] [0x2 3 1 [17 0] [21 4]] (REQUEST)
r 1.013017814 _10_ RTR  --- 0 AODV 48 [0 ffffffff 9 800] ------- [9:255 -1:255 28 0] [0x2 3 1 [17 0] [21 4]] (REQUEST)
s 1.013102484 _18_ MAC  --- 0 AODV 106 [0 ffffffff 12 800] ------- [18:255 -1:255 28 0] [0x2 3 1 [17 0] [21 4]] (REQUEST)
r 1.013950725 _7_ MAC  --- 0 AODV 48 [0 ffffffff 12 800] ------- [18:255 -1:255 28 0] [0x2 3 1 [17 0] [21 4]] (REQUEST)
r 1.013950912 _10_ MAC  --- 0 AODV 48 [0 ffffffff 12 800] ------- [18:255 -1:255 28 0] [0x2 3 1 [17 0] [21 4]] (REQUEST)
r 1.013950947 _9_ MAC  --- 0 AODV 48 [0 ffffffff 12 800] ------- [18:255 -1:255 28 0] [0x2 3 1 [17 0] [21 4]] (REQUEST)
r 1.013950971 _4_ MAC  --- 0 AODV 48 [0 ffffffff 12 800] ------- [18:255 -1:255 28 0] [0x2 3 1 [17 0] [21 4]] (REQUEST)
r 1.013950979 _6_ MAC  --- 0 AODV 48 [0 ffffffff 12 800] ------- [18:255 -1:255 28 0] [0x2 3 1 [17 0] [21 4]] (REQUEST)
r 1.013951040 _8_ MAC  --- 0 AODV 48 [0 ffffffff 12 800] ------- [18:255 -1:255 28 0] [0x2 3 1 [17 0] [21 4]] (REQUEST)
r 1.013951045 _13_ MAC  --- 0 AODV 48 [0 ffffffff 12 800] ------- [18:255 -1:255 28 0] [0x2 3 1 [17 0] [21 4]] (REQUEST)
r 1.013951057 _12_ MAC  --- 0 AODV 48 [0 ffffffff 12 800] ------- [18:255 -1:255 28 0] [0x2 3 1 [17 0] [21 4]] (REQUEST)
r 1.013951230 _3_ MAC  --- 0 AODV 48 [0 ffffffff 12 800] ------- [18:255 -1:255 28 0] [0x2 3 1 [17 0] [21 4]] (REQUEST)
r 1.013951232 _11_ MAC  --- 0 AODV 48 [0 ffffffff 12 800] ------- [18:255 -1:255 28 0] [0x2 3 1 [17 0] [21 4]] (REQUEST)
r 1.013951241 _5_ MAC  --- 0 AODV 48 [0 ffffffff 12 800] ------- [18:255 -1:255 28 0] [0x2 3 1 [17 0] [21 4]] (REQUEST)
r 1.013951299 _15_ MAC  --- 0 AODV 48 [0 ffffffff 12 800] ------- [18:255 -1:255 28 0] [0x2 3 1 [17 0] [21 4]] (REQUEST)
r 1.013975725 _7_ RTR  --- 0 AODV 48 [0 ffffffff 12 800] ------- [18:255 -1:255 28 0] [0x2 3 1 [17 0] [21 4]] (REQUEST)
r 1.013975912 _10_ RTR  --- 0 AODV 48 [0 ffffffff 12 800] ------- [18:255 -1:255 28 0] [0x2 3 1 [17 0] [21 4]] (REQUEST)
r 1.013975947 _9_ RTR  --- 0 AODV 48 [0 ffffffff 12 800] ------- [18:255 -1:255 28 0] [0x2 3 1 [17 0] [21 4]] (REQUEST)
r 1.013975971 _4_ RTR  --- 0 AODV 48 [0 ffffffff 12 800] ------- [18:255 -1:255 28 0] [0x2 3 1 [17 0] [21 4]] (REQUEST)
r 1.013975979 _6_ RTR  --- 0 AODV 48 [0 ffffffff 12 800] ------- [18:255 -1:255 28 0] [0x2 3 1 [17 0] [21 4]] (REQUEST)
r 1.013976040 _8_ RTR  --- 0 AODV 48 [0 ffffffff 12 800] ------- [18:255 -1:255 28 0] [0x2 3 1 [17 0] [21 4]] (REQUEST)
r 1.013976045 _13_ RTR  --- 0 AODV 48 [0 ffffffff 12 800] ------- [18:255 -1:255 28 0] [0x2 3 1 [17 0] [21 4]] (REQUEST)
r 1.013976057 _12_ RTR  --- 0 AODV 48 [0 ffffffff 12 800] ------- [18:255 -1:255 28 0] [0x2 3 1 [17 0] [21 4]] (REQUEST)
r 1.013976230 _3_ RTR  --- 0 AODV 48 [0 ffffffff 12 800] ------- [18:255 -1:255 28 0] [0x2 3 1 [17 0] [21 4]] (REQUEST)
r 1.013976232 _11_ RTR  --- 0 AODV 48 [0 ffffffff 12 800] ------- [18:255 -1:255 28 0] [0x2 3 1 [17 0] [21 4]] (REQUEST)
r 1.013976241 _5_ RTR  --- 0 AODV 48 [0 ffffffff 12 800] ------- [18:255 -1:255 28 0] [0x2 3 1 [17 0] [21 4]] (REQUEST)
r 1.013976299 _15_ RTR  --- 0 AODV 48 [0 ffffffff 12 800] ------- [18:255 -1:255 28 0] [0x2 3 1 [17 0] [21 4]] (REQUEST)
s 1.014020725 _7_ MAC  --- 0 ARP 86 [0 ffffffff 7 806] ------- [REQUEST 7/7 0/4]
s 1.014138127 _10_ RTR  --- 0 AODV 48 [0 ffffffff 9 800] ------- [10:255 -1:255 27 0] [0x2 4 1 [17 0] [21 4]] (REQUEST)
r 1.014708967 _18_ MAC  --- 0 ARP 28 [0 ffffffff 7 806] ------- [REQUEST 7/7 0/4]
r 1.014709008 _10_ MAC  --- 0 ARP 28 [0 ffffffff 7 806] ------- [REQUEST 7/7 0/4]
r 1.014709045 _8_ MAC  --- 0 ARP 28 [0 ffffffff 7 806] ------- [REQUEST 7/7 0/4]
r 1.014709243 _6_ MAC  --- 0 ARP 28 [0 ffffffff 7 806] ------- [REQUEST 7/7 0/4]
r 1.014709254 _11_ MAC  --- 0 ARP 28 [0 ffffffff 7 806] ------- [REQUEST 7/7 0/4]
r 1.014709255 _13_ MAC  --- 0 ARP 28 [0 ffffffff 7 806] ------- [REQUEST 7/7 0/4]
r 1.014709275 _5_ MAC  --- 0 ARP 28 [0 ffffffff 7 806] ------- [REQUEST 7/7 0/4]
r 1.014709290 _4_ MAC  --- 0 ARP 28 [0 ffffffff 7 806] ------- [REQUEST 7/7 0/4]
r 1.014709389 _3_ MAC  --- 0 ARP 28 [0 ffffffff 7 806] ------- [REQUEST 7/7 0/4]
r 1.014709418 _14_ MAC  --- 0 ARP 28 [0 ffffffff 7 806] ------- [REQUEST 7/7 0/4]
r 1.014709424 _9_ MAC  --- 0 ARP 28 [0 ffffffff 7 806] ------- [REQUEST 7/7 0/4]
r 1.014709484 _12_ MAC  --- 0 ARP 28 [0 ffffffff 7 806] ------- [REQUEST 7/7 0/4]
r 1.014709525 _16_ MAC  --- 0 ARP 28 [0 ffffffff 7 806] ------- [REQUEST 7/7 0/4]
r 1.014709537 _2_ MAC  --- 0 ARP 28 [0 ffffffff 7 806] ------- [REQUEST 7/7 0/4]
s 1.014779255 _13_ MAC  --- 0 ARP 86 [0 ffffffff d 806] ------- [REQUEST 13/13 0/9]
r 1.015467379 _6_ MAC  --- 0 ARP 28 [0 ffffffff d 806] ------- [REQUEST 13/13 0/9]
r 1.015467552 _10_ MAC  --- 0 ARP 28 [0 ffffffff d 806] ------- [REQUEST 13/13 0/9]
r 1.015467707 _14_ MAC  --- 0 ARP 28 [0 ffffffff d 806] ------- [REQUEST 13/13 0/9]
r 1.015467784 _7_ MAC  --- 0 ARP 28 [0 ffffffff d 806] ------- [REQUEST 13/13 0/9]
r 1.015467816 _18_ MAC  --- 0 ARP 28 [0 ffffffff d 806] ------- [REQUEST 13/13 0/9]
r 1.015467829 _11_ MAC  --- 0 ARP 28 [0 ffffffff d 806] ------- [REQUEST 13/13 0/9]
r 1.015467848 _12_ MAC  --- 0 ARP 28 [0 ffffffff d 806] ------- [REQUEST 13/13 0/9]
r 1.015467963 _8_ MAC  --- 0 ARP 28 [0 ffffffff d 806] ------- [REQUEST 13/13 0/9]
r 1.015468008 _9_ MAC  --- 0 ARP 28 [0 ffffffff d 806] ------- [REQUEST 13/13 0/9]
s 1.015938008 _9_ MAC  --- 0 RTS 44 [52e d 9 0] 
r 1.016290762 _13_ MAC  --- 0 RTS 44 [52e d 9 0] 
s 1.016300762 _13_ MAC  --- 0 CTS 38 [3f4 9 0 0] 
r 1.016605515 _9_ MAC  --- 0 CTS 38 [3f4 9 0 0] 
s 1.016615515 _9_ MAC  --- 0 ARP 86 [13a d 9 806] ------- [REPLY 9/9 13/13]
s 1.016664766 _5_ RTR  --- 0 AODV 48 [0 ffffffff 4 800] ------- [5:255 -1:255 27 0] [0x2 4 1 [17 0] [21 4]] (REQUEST)
r 1.017304268 _13_ MAC  --- 0 ARP 28 [13a d 9 806] ------- [REPLY 9/9 13/13]
s 1.017314268 _13_ MAC  --- 0 ACK 38 [0 9 0 0] 
s 1.017513680 _2_ RTR  --- 0 AODV 48 [0 ffffffff 4 800] ------- [2:255 -1:255 27 0] [0x2 4 1 [17 0] [21 4]] (REQUEST)
r 1.017619022 _9_ MAC  --- 0 ACK 38 [0 9 0 0] 
s 1.017728566 _10_ MAC  --- 0 AODV 106 [0 ffffffff a 800] ------- [10:255 -1:255 27 0] [0x2 4 1 [17 0] [21 4]] (REQUEST)
s 1.018402317 _8_ RTR  --- 0 AODV 48 [0 ffffffff 4 800] ------- [8:255 -1:255 27 0] [0x2 4 1 [17 0] [21 4]] (REQUEST)
r 1.018576848 _7_ MAC  --- 0 AODV 48 [0 ffffffff a 800] ------- [10:255 -1:255 27 0] [0x2 4 1 [17 0] [21 4]] (REQUEST)
r 1.018576863 _13_ MAC  --- 0 AODV 48 [0 ffffffff a 800] ------- [10:255 -1:255 27 0] [0x2 4 1 [17 0] [21 4]] (REQUEST)
r 1.018576910 _6_ MAC  --- 0 AODV 48 [0 ffffffff a 800] ------- [10:255 -1:255 27 0] [0x2 4 1 [17 0] [21 4]] (REQUEST)
r 1.018576932 _11_ MAC  --- 0 AODV 48 [0 ffffffff a 800] ------- [10:255 -1:255 27 0] [0x2 4 1 [17 0] [21 4]] (REQUEST)
r 1.018576977 _8_ MAC  --- 0 AODV 48 [0 ffffffff a 800] ------- [10:255 -1:255 27 0] [0x2 4 1 [17 0] [21 4]] (REQUEST)
r 1.018576994 _18_ MAC  --- 0 AODV 48 [0 ffffffff a 800] ------- [10:255 -1:255 27 0] [0x2 4 1 [17 0] [21 4]] (REQUEST)
r 1.018576994 _14_ MAC  --- 0 AODV 48 [0 ffffffff a 800] ------- [10:255 -1:255 27 0] [0x2 4 1 [17 0] [21 4]] (REQUEST)
r 1.018577256 _5_ MAC  --- 0 AODV 48 [0 ffffffff a 800] ------- [10:255 -1:255 27 0] [0x2 4 1 [17 0] [21 4]] (REQUEST)
r 1.018577308 _12_ MAC  --- 0 AODV 48 [0 ffffffff a 800] ------- [10:255 -1:255 27 0] [0x2 4 1 [17 0] [21 4]] (REQUEST)
r 1.018577338 _16_ MAC  --- 0 AODV 48 [0 ffffffff a 800] ------- [10:255 -1:255 27 0] [0x2 4 1 [17 0] [21 4]] (REQUEST)
r 1.018577359 _9_ MAC  --- 0 AODV 48 [0 ffffffff a 800] ------- [10:255 -1:255 27 0] [0x2 4 1 [17 0] [21 4]] (REQUEST)
r 1.018601848 _7_ RTR  --- 0 AODV 48 [0 ffffffff a 800] ------- [10:255 -1:255 27 0] [0x2 4 1 [17 0] [21 4]] (REQUEST)
r 1.018601863 _13_ RTR  --- 0 AODV 48 [0 ffffffff a 800] ------- [10:255 -1:255 27 0] [0x2 4 1 [17 0] [21 4]] (REQUEST)
r 1.018601910 _6_ RTR  --- 0 AODV 48 [0 ffffffff a 800] ------- [10:255 -1:255 27 0] [0x2 4 1 [17 0] [21 4]] (REQUEST)
r 1.018601932 _11_ RTR  --- 0 AODV 48 [0 ffffffff a 800] ------- [10:255 -1:255 27 0] [0x2 4 1 [17 0] [21 4]] (REQUEST)
r 1.018601977 _8_ RTR  --- 0 AODV 48 [0 ffffffff a 800] ------- [10:255 -1:255 27 0] [0x2 4 1 [17 0] [21 4]] (REQUEST)
r 1.018601994 _18_ RTR  --- 0 AODV 48 [0 ffffffff a 800] ------- [10:255 -1:255 27 0] [0x2 4 1 [17 0] [21 4]] (REQUEST)
r 1.018601994 _14_ RTR  --- 0 AODV 48 [0 ffffffff a 800] ------- [10:255 -1:255 27 0] [0x2 4 1 [17 0] [21 4]] (REQUEST)
r 1.018602256 _5_ RTR  --- 0 AODV 48 [0 ffffffff a 800] ------- [10:255 -1:255 27 0] [0x2 4 1 [17 0] [21 4]] (REQUEST)
r 1.018602308 _12_ RTR  --- 0 AODV 48 [0 ffffffff a 800] ------- [10:255 -1:255 27 0] [0x2 4 1 [17 0] [21 4]] (REQUEST)
r 1.018602338 _16_ RTR  --- 0 AODV 48 [0 ffffffff a 800] ------- [10:255 -1:255 27 0] [0x2 4 1 [17 0] [21 4]] (REQUEST)
r 1.018602359 _9_ RTR  --- 0 AODV 48 [0 ffffffff a 800] ------- [10:255 -1:255 27 0] [0x2 4 1 [17 0] [21 4]] (REQUEST)
s 1.018786863 _13_ MAC  --- 0 RTS 44 [5ae 9 d 0] 
s 1.018786977 _8_ MAC  --- 0 AODV 106 [0 ffffffff 8 800] ------- [8:255 -1:255 27 0] [0x2 4 1 [17 0] [21 4]] (REQUEST)
D 1.018787994 _9_ MAC  COL 0 RTS 44 [5ae 9 d 0] 
s 1.018877569 _14_ RTR  --- 0 AODV 48 [0 ffffffff a 800] ------- [14:255 -1:255 26 0] [0x2 5 1 [17 0] [21 4]] (REQUEST)
r 1.019635256 _5_ MAC  --- 0 AODV 48 [0 ffffffff 8 800] ------- [8:255 -1:255 27 0] [0x2 4 1 [17 0] [21 4]] (REQUEST)
D 1.019635296 _7_ MAC  COL 0 AODV 106 [0 ffffffff 8 800] ------- [8:255 -1:255 27 0] [0x2 4 1 [17 0] [21 4]] (REQUEST)
D 1.019635354 _11_ MAC  COL 0 AODV 106 [0 ffffffff 8 800] ------- [8:255 -1:255 27 0] [0x2 4 1 [17 0] [21 4]] (REQUEST)
D 1.019635388 _10_ MAC  COL 0 AODV 106 [0 ffffffff 8 800] ------- [8:255 -1:255 27 0] [0x2 4 1 [17 0] [21 4]] (REQUEST)
r 1.019635468 _16_ MAC  --- 0 AODV 48 [0 ffffffff 8 800] ------- [8:255 -1:255 27 0] [0x2 4 1 [17 0] [21 4]] (REQUEST)
D 1.019635532 _18_ MAC  COL 0 AODV 106 [0 ffffffff 8 800] ------- [8:255 -1:255 27 0] [0x2 4 1 [17 0] [21 4]] (REQUEST)
r 1.019635552 _2_ MAC  --- 0 AODV 48 [0 ffffffff 8 800] ------- [8:255 -1:255 27 0] [0x2 4 1 [17 0] [21 4]] (REQUEST)
r 1.019635576 _3_ MAC  --- 0 AODV 48 [0 ffffffff 8 800] ------- [8:255 -1:255 27 0] [0x2 4 1 [17 0] [21 4]] (REQUEST)
r 1.019635580 _17_ MAC  --- 0 AODV 48 [0 ffffffff 8 800] ------- [8:255 -1:255 27 0] [0x2 4 1 [17 0] [21 4]] (REQUEST)
D 1.019635633 _14_ MAC  COL 0 AODV 106 [0 ffffffff 8 800] ------- [8:255 -1:255 27 0] [0x2 4 1 [17 0] [21 4]] (REQUEST)
D 1.019635695 _4_ MAC  COL 0 AODV 106 [0 ffffffff 8 800] ------- [8:255 -1:255 27 0] [0x2 4 1 [17 0] [21 4]] (REQUEST)
r 1.019660256 _5_ RTR  --- 0 AODV 48 [0 ffffffff 8 800] ------- [8:255 -1:255 27 0] [0x2 4 1 [17 0] [21 4]] (REQUEST)
r 1.019660468 _16_ RTR  --- 0 AODV 48 [0 ffffffff 8 800] ------- [8:255 -1:255 27 0] [0x2 4 1 [17 0] [21 4]] (REQUEST)
r 1.019660552 _2_ RTR  --- 0 AODV 48 [0 ffffffff 8 800] ------- [8:255 -1:255 27 0] [0x2 4 1 [17 0] [21 4]] (REQUEST)
r 1.019660576 _3_ RTR  --- 0 AODV 48 [0 ffffffff 8 800] ------- [8:255 -1:255 27 0] [0x2 4 1 [17 0] [21 4]] (REQUEST)
r 1.019660580 _17_ RTR  --- 0 AODV 48 [0 ffffffff 8 800] ------- [8:255 -1:255 27 0] [0x2 4 1 [17 0] [21 4]] (REQUEST)
s 1.019660580 _17_ RTR  --- 0 AODV 44 [0 0 0 0] ------- [17:255 21:255 30 8] [0x4 1 [17 4] 10.000000] (REPLY)
s 1.019685552 _2_ MAC  --- 0 AODV 106 [0 ffffffff 2 800] ------- [2:255 -1:255 27 0] [0x2 4 1 [17 0] [21 4]] (REQUEST)
s 1.019926506 _11_ RTR  --- 0 AODV 48 [0 ffffffff 12 800] ------- [11:255 -1:255 27 0] [0x2 4 1 [17 0] [21 4]] (REQUEST)
s 1.020130610 _24_ MAC  --- 0 AODV 106 [0 ffffffff 18 800] ------- [24:255 -1:255 28 0] [0x2 3 1 [17 0] [21 4]] (REQUEST)